/*--------------------------------*- C++ -*----------------------------------*\
  =========                 |
  \\      /  F ield         | OpenFOAM: The Open Source CFD Toolbox
   \\    /   O peration     | Website:  https://openfoam.org
    \\  /    A nd           | Version:  8
     \\/     M anipulation  |
\*---------------------------------------------------------------------------*/
FoamFile
{
    version     2.0;
    format      ascii;
    class       volScalarField;
    location    "0.000332";
    object      H2;
}
// * * * * * * * * * * * * * * * * * * * * * * * * * * * * * * * * * * * * * //

dimensions      [0 0 0 0 0 0 0];

internalField   nonuniform List<scalar> 
22800
(
1
1
1
1
1
1
1
1
1
1
1
1
1
1
1
1
1
1
1
1
1
1
1
1
1
1
1
1
1
1
1
1
1
1
1
1
1
1
1
1
1
1
1
1
1
1
1
1
1
1
1
1
1
1
1
1
1
1
1
1
1
1
1
1
1
1
1
1
1
1
1
1
1
1
1
1
1
1
1
1
1
1
1
1
1
1
1
1
1
1
1
1
1
1
1
1
1
1
1
1
1
1
1
1
1
1
1
1
1
1
1
1
1
1
1
1
1
1
1
1
1
1
1
1
1
1
1
1
1
1
1
1
1
1
1
1
1
1
1
1
1
1
1
1
1
1
1
1
1
1
1
1
1
1
1
1
1
1
1
1
1
1
1
1
1
1
1
1
1
1
1
1
1
1
1
1
1
1
1
1
1
1
1
1
1
1
1
1
1
1
1
1
1
1
1
1
1
1
1
1
1
1
1
1
1
1
1
1
1
1
1
1
1
1
1
1
1
1
1
1
1
1
1
1
1
1
1
1
1
1
1
1
1
1
1
1
1
1
1
1
1
1
1
1
1
1
1
1
1
1
1
1
1
1
1
1
1
1
1
1
1
1
1
1
1
1
1
1
1
1
1
1
1
1
1
1
1
1
1
1
1
1
1
1
1
1
1
1
1
1
1
1
1
1
1
1
1
1
1
1
1
1
1
1
1
1
1
1
1
1
1
1
1
1
1
1
1
1
1
1
1
1
1
1
1
1
1
1
1
1
1
1
1
1
1
1
1
1
1
1
1
1
1
1
1
1
1
1
1
1
1
1
1
1
1
1
1
1
1
1
1
1
1
1
1
1
1
1
1
1
1
1
1
1
1
1
1
1
1
1
1
1
1
1
1
1
1
1
1
1
1
1
1
1
1
1
1
1
1
1
1
1
1
1
1
1
1
1
1
1
1
1
1
1
1
1
1
1
1
1
1
1
1
1
1
1
1
1
1
1
1
1
1
1
1
1
1
1
1
1
1
1
1
1
1
1
1
1
1
1
1
1
1
1
1
1
1
1
1
1
1
1
1
1
1
1
1
1
1
1
1
1
1
1
1
1
1
1
1
1
1
1
1
1
1
1
1
1
1
1
1
1
1
1
1
1
1
1
1
1
1
1
1
1
1
1
1
1
1
1
1
1
1
1
1
1
1
1
1
1
1
1
1
1
1
1
1
1
1
1
1
1
1
1
1
1
1
1
1
1
1
1
1
1
1
1
1
1
1
1
1
1
1
1
1
1
1
1
1
1
1
1
1
1
1
1
1
1
1
1
1
1
1
1
1
1
1
1
1
1
1
1
1
1
1
1
1
1
1
1
1
1
1
1
1
1
1
1
1
1
1
1
1
1
1
1
1
1
1
1
1
1
1
1
1
1
1
1
1
1
1
1
1
1
1
1
1
1
1
1
1
1
1
1
1
1
1
1
1
1
1
1
1
1
1
1
1
1
1
1
1
1
1
1
1
1
1
1
1
1
1
1
1
1
1
1
1
1
1
1
1
1
1
1
1
1
1
1
1
1
1
1
1
1
1
1
1
1
1
1
1
1
1
1
1
1
1
1
1
1
1
1
1
1
1
1
1
1
1
1
1
1
1
1
1
1
1
1
1
1
1
1
1
1
1
1
1
1
1
1
1
1
1
1
1
1
1
1
1
1
1
1
1
1
1
1
1
1
1
1
1
1
1
1
1
1
1
1
1
1
1
1
1
1
1
1
1
1
1
1
1
1
1
1
1
1
1
1
1
1
1
1
1
1
1
1
1
1
1
1
1
1
1
1
1
1
1
1
1
1
1
1
1
1
1
1
1
1
1
1
1
1
1
1
1
1
1
1
1
1
1
1
1
1
1
1
1
1
1
1
1
1
1
1
1
1
1
1
1
1
1
1
1
1
1
1
1
1
1
1
1
1
1
1
1
1
1
1
1
1
1
1
1
1
1
1
1
1
1
1
1
1
1
1
1
1
1
1
1
1
1
1
1
1
1
1
1
1
1
1
1
1
1
1
1
1
1
1
1
1
1
1
1
1
1
1
1
1
1
1
1
1
1
1
1
1
1
1
1
1
1
1
1
1
1
1
1
1
1
1
1
1
1
1
1
1
1
1
1
1
1
1
1
1
1
1
1
1
1
1
1
1
1
1
1
1
1
1
1
1
1
1
1
1
1
1
1
1
1
1
1
1
1
1
1
1
1
1
1
1
1
1
1
1
1
1
1
1
1
1
1
1
1
1
1
1
1
1
1
1
1
1
1
1
1
1
1
1
1
1
1
1
1
1
1
1
1
1
1
1
1
1
1
1
1
1
1
1
1
1
1
1
1
1
1
1
1
1
1
1
1
1
1
1
1
1
1
1
1
1
1
1
1
1
1
1
1
1
1
1
1
1
1
1
1
1
1
1
1
1
1
1
1
1
1
1
1
1
1
1
1
1
1
1
1
1
1
1
1
1
1
1
1
1
1
1
1
1
1
1
1
1
1
1
1
1
1
1
1
1
1
1
1
1
1
1
1
1
1
1
1
1
1
1
1
1
1
1
1
1
1
1
1
1
1
1
1
1
0.999999999999
0.999999999999
1
1
1
1
1
1
1
1
1
1
1
1
1
1
1
1
1
1
1
1
1
1
1
1
1
1
1
1
1
1
1
1
1
1
1
1
1
1
1
1
1
1
1
1
1
1
1
1
1
1
1
1
1
1
1
1
1
1
1
1
1
1
1
1
1
1
1
1
1
1
1
1
1
1
1
1
1
1
1
1
1
1
1
1
1
1
1
1
1
1
1
1
1
1
1
1
1
1
1
1
1
1
1
1
1
1
1
1
1
1
1
1
1
1
1
1
1
1
1
1
1
1
1
1
1
1
1
1
1
1
1
1
1
1
1
1
1
1
1
1
1
1
1
1
1
1
1
1
1
1
1
1
1
1
1
1
1
1
1
1
1
1
1
1
1
1
1
1
1
1
1
1
1
1
1
1
1
1
1
1
1
1
1
1
1
0.999999999998
0.999999999995
0.999999999992
0.999999999989
0.999999999988
1
1
1
1
1
1
1
1
1
1
1
1
1
1
1
1
1
1
1
1
1
1
1
1
1
1
1
1
1
1
1
1
1
1
1
1
1
1
1
1
1
1
1
1
1
1
1
1
1
1
1
1
1
1
1
1
1
1
1
1
1
1
1
1
1
1
1
1
1
1
1
1
1
1
1
1
1
1
1
1
1
1
1
1
1
1
1
1
1
1
1
1
1
1
1
1
1
1
1
1
1
1
1
1
1
1
1
1
1
1
1
1
1
1
1
1
1
1
1
1
1
1
1
1
1
1
1
1
1
1
1
1
1
1
1
1
1
1
1
1
1
1
1
1
1
1
1
1
1
1
1
1
1
1
1
1
1
1
1
1
1
1
1
0.999999999999
0.999999999999
0.999999999999
0.999999999999
0.999999999999
0.999999999999
1
1
1
1
1
1
0.999999999999
0.999999999998
0.999999999998
0.999999999997
0.999999999997
0.999999999996
0.999999999995
0.999999999992
0.999999999988
0.999999999983
0.999999999981
0.999999999982
0.999999999985
0.99999999999
0.999999999989
1
1
1
1
1
1
1
1
1
1
1
1
1
1
1
1
1
1
1
1
1
1
1
1
1
1
1
1
1
1
1
1
1
1
1
1
1
1
1
1
1
1
1
1
1
1
1
1
1
1
1
1
1
1
1
1
1
1
1
1
1
1
1
1
1
1
1
1
1
1
1
1
1
1
1
1
1
1
1
1
1
1
1
1
1
1
1
1
1
1
1
1
1
1
1
1
1
1
1
1
1
1
1
1
1
1
1
1
1
1
1
1
1
1
1
1
1
1
1
1
1
1
1
1
1
1
1
1
1
1
1
1
1
1
1
1
1
1
1
1
1
1
1
1
1
1
1
1
1
1
1
1
1
1
1
1
1
1
0.999999999999
0.999999999998
0.999999999997
0.999999999997
0.999999999997
0.999999999997
0.999999999997
0.999999999996
0.999999999995
0.999999999993
0.999999999992
0.999999999992
0.999999999991
0.99999999999
0.999999999985
0.999999999979
0.999999999973
0.999999999968
0.999999999965
0.999999999964
0.999999999963
0.999999999961
0.999999999958
0.999999999955
0.999999999952
0.999999999952
0.999999999961
0.999999999981
1.00000000001
1.00000000005
1.00000000008
1.00000000009
1
1
1
1
1
1
1
1
1
1
1
1
1
1
1
1
1
1
1
1
1
1
1
1
1
1
1
1
1
1
1
1
1
1
1
1
1
1
1
1
1
1
1
1
1
1
1
1
1
1
1
1
1
1
1
1
1
1
1
1
1
1
1
1
1
1
1
1
1
1
1
1
1
1
1
1
1
1
1
1
1
1
1
1
1
1
1
1
1
1
1
1
1
1
1
1
1
1
1
1
1
1
1
1
1
1
1
1
1
1
1
1
1
1
1
1
1
1
1
1
1
1
1
1
1
1
1
1
1
1
1
1
1
1
1
1
1
1
1
1
1
1
1
1
1
1
1
1
1
1
1
1
1
1
1
0.999999999999
0.999999999998
0.999999999996
0.999999999995
0.999999999993
0.999999999993
0.999999999994
0.999999999998
1
1
1
1
0.999999999999
0.999999999992
0.999999999989
0.999999999984
0.999999999971
0.999999999958
0.999999999946
0.999999999942
0.999999999941
0.999999999941
0.999999999941
0.99999999994
0.999999999938
0.999999999938
0.999999999942
0.999999999965
1.00000000001
1.00000000007
1.00000000013
1.00000000018
1.00000000025
1.0000000003
1.00000000034
1
1
1
1
1
1
1
1
1
1
1
1
1
1
1
1
1
1
1
1
1
1
1
1
1
1
1
1
1
1
1
1
1
1
1
1
1
1
1
1
1
1
1
1
1
1
1
1
1
1
1
1
1
1
1
1
1
1
1
1
1
1
1
1
1
1
1
1
1
1
1
1
1
1
1
1
1
1
1
1
1
1
1
1
1
1
1
1
1
1
1
1
1
1
1
1
1
1
1
1
1
1
1
1
1
1
1
1
1
1
1
1
1
1
1
1
1
1
1
1
1
1
1
1
1
1
1
1
1
1
1
1
1
1
1
1
1
1
1
1
1
1
1
1
1
1
1
1
1
1
1
1
0.999999999999
0.999999999997
0.999999999995
0.999999999993
0.999999999992
0.999999999992
0.999999999994
1
1.00000000001
1.00000000001
1.00000000002
1.00000000003
1.00000000004
1.00000000005
1.00000000007
1.00000000008
1.00000000008
1.00000000008
1.00000000007
1.00000000007
1.00000000008
1.0000000001
1.00000000014
1.00000000017
1.00000000019
1.00000000019
1.00000000019
1.0000000002
1.00000000021
1.00000000025
1.00000000033
1.0000000004
1.00000000044
1.00000000043
1.00000000034
1.00000000013
0.999999999967
1.00000000004
1
1
1
1
1
1
1
1
1
1
1
1
1
1
1
1
1
1
1
1
1
1
1
1
1
1
1
1
1
1
1
1
1
1
1
1
1
1
1
1
1
1
1
1
1
1
1
1
1
1
1
1
1
1
1
1
1
1
1
1
1
1
1
1
1
1
1
1
1
1
1
1
1
1
1
1
1
1
1
1
1
1
1
1
1
1
1
1
1
1
1
1
1
1
1
1
1
1
1
1
1
1
1
1
1
1
1
1
1
1
1
1
1
1
1
1
1
1
1
1
1
1
1
1
1
1
1
1
1
1
1
1
1
1
1
1
1
1
1
1
1
1
1
0.999999999999
0.999999999998
0.999999999996
0.999999999995
0.999999999996
0.999999999998
0.999999999999
0.999999999999
0.999999999997
0.999999999995
0.999999999993
0.999999999993
0.999999999995
1.00000000001
1.00000000002
1.00000000004
1.00000000006
1.00000000006
1.00000000006
1.00000000004
1.00000000002
1.00000000003
1.00000000004
1.00000000013
1.00000000019
1.00000000029
1.00000000032
1.00000000036
1.00000000045
1.00000000055
1.00000000065
1.00000000074
1.0000000008
1.00000000084
1.00000000085
1.00000000086
1.00000000088
1.00000000092
1.00000000096
1.00000000096
1.00000000089
1.00000000057
1.00000000009
0.999999999447
0.999999998374
0.999999997308
0.99999999719
1
1
1
1
1
1
1
1
1
1
1
1
1
1
1
1
1
1
1
1
1
1
1
1
1
1
1
1
1
1
1
1
1
1
1
1
1
1
1
1
1
1
1
1
1
1
1
1
1
1
1
1
1
1
1
1
1
1
1
1
1
1
1
1
1
1
1
1
1
1
1
1
1
1
1
1
1
1
1
1
1
1
1
1
1
1
1
1
1
1
1
1
1
1
1
1
1
1
1
1
1
1
1
1
1
1
1
1
1
1
1
1
1
1
1
1
1
1
1
1
1
1
1
1
1
1
1
1
1
1
1
1
0.999999999999
0.999999999999
0.999999999999
0.999999999999
0.999999999999
0.999999999999
0.999999999999
0.999999999998
0.999999999995
0.999999999991
0.999999999987
0.999999999981
0.999999999973
0.999999999962
0.999999999959
0.999999999961
0.999999999973
0.999999999982
0.999999999989
0.999999999998
1
1.00000000002
1.00000000003
1.00000000006
1.00000000009
1.00000000013
1.00000000015
1.00000000014
1.00000000009
1.00000000003
0.999999999944
0.999999999754
0.999999999668
0.999999999541
0.999999999474
0.999999999576
0.999999999843
0.999999999951
1.00000000008
1.00000000036
1.00000000054
1.00000000057
1.00000000054
1.00000000048
1.00000000046
1.00000000048
1.00000000054
1.0000000006
1.00000000063
1.00000000056
1.0000000001
0.999999999546
0.999999998502
0.999999997469
0.999999996899
0.99999999608
0.999999994481
0.999999992859
1
1
1
1
1
1
1
1
1
1
1
1
1
1
1
1
1
1
1
1
1
1
1
1
1
1
1
1
1
1
1
1
1
1
1
1
1
1
1
1
1
1
1
1
1
1
1
1
1
1
1
1
1
1
1
1
1
1
1
1
1
1
1
1
1
1
1
1
1
1
1
1
1
1
1
1
1
1
1
1
1
1
1
1
1
1
1
1
1
1
1
1
1
1
1
1
1
1
1
1
1
1
1
1
1
1
1
1
1
1
1
1
1
1
1
1
1
1
0.999999999999
0.999999999999
0.999999999999
0.999999999997
0.999999999996
0.999999999995
0.999999999995
0.999999999996
0.999999999999
1
1
1
1
1
1
1
0.999999999999
0.999999999997
0.999999999995
0.999999999992
0.999999999988
0.999999999982
0.999999999973
0.999999999964
0.999999999959
0.999999999955
0.999999999949
0.999999999941
0.999999999937
0.999999999937
0.99999999995
0.999999999967
0.999999999995
1.00000000003
1.00000000006
1.0000000001
1.00000000015
1.00000000018
1.00000000018
1.00000000016
1.00000000006
0.999999999982
0.999999999896
0.999999999874
0.99999999975
0.999999999389
0.999999999108
0.999999998443
0.999999997285
0.99999999658
0.99999999644
0.999999996507
0.999999996582
0.999999996586
0.999999996527
0.999999996221
0.999999995666
0.999999995222
0.999999995146
0.999999995211
0.999999995378
0.999999995533
0.999999995529
0.999999995122
0.99999999408
0.999999992951
0.999999992755
0.999999994296
0.999999998843
1.00000000379
1.00000000548
1.00000000048
1
1
1
1
1
1
1
1
1
1
1
1
1
1
1
1
1
1
1
1
1
1
1
1
1
1
1
1
1
1
1
1
1
1
1
1
1
1
1
1
1
1
1
1
1
1
1
1
1
1
1
1
1
1
1
1
1
1
1
1
1
1
1
1
1
1
1
1
1
1
1
1
1
1
1
1
1
1
1
1
1
1
1
1
1
1
1
1
1
1
1
1
1
1
1
1
1
1
1
1
1
1
1
1
1
1
1
1
1
1
1
1
1
1
1
1
1
0.999999999999
0.999999999999
0.999999999998
0.999999999997
0.999999999994
0.99999999999
0.999999999987
0.999999999986
0.999999999984
0.999999999984
0.999999999987
0.999999999995
1
1.00000000001
1.00000000001
1.00000000001
1.00000000001
1
1
0.999999999995
0.999999999988
0.999999999981
0.999999999977
0.999999999979
0.999999999992
1.00000000002
1.00000000005
1.0000000001
1.00000000016
1.00000000017
1.00000000015
1.00000000011
1.00000000009
1.00000000008
1.00000000009
1.00000000011
1.0000000001
1.00000000002
0.999999999874
0.999999999601
0.999999999297
0.999999999064
0.999999999071
0.999999999495
1.00000000024
1.00000000117
1.00000000176
1.00000000175
1.00000000077
0.999999999302
0.999999995546
0.999999992401
0.999999991474
0.999999990337
0.999999988328
0.999999986411
0.999999984938
0.999999984136
0.999999984031
0.999999984257
0.999999984542
0.999999984768
0.999999984769
0.99999998443
0.999999983954
0.999999983742
0.999999985467
0.999999991813
1.00000000486
1.00000001849
1.00000004233
1.00000005898
1.00000005351
1
1
1
1
1
1
1
1
1
1
1
1
1
1
1
1
1
1
1
1
1
1
1
1
1
1
1
1
1
1
1
1
1
1
1
1
1
1
1
1
1
1
1
1
1
1
1
1
1
1
1
1
1
1
1
1
1
1
1
1
1
1
1
1
1
1
1
1
1
1
1
1
1
1
1
1
1
1
1
1
1
1
1
1
1
1
1
1
1
1
1
1
1
1
1
1
1
1
1
1
1
1
1
1
1
1
1
0.999999999999
0.999999999999
0.999999999999
0.999999999999
0.999999999999
0.999999999999
1
1
1
1
1
1.00000000001
1.00000000001
1.00000000001
1.00000000002
1.00000000002
1.00000000001
1.00000000001
0.999999999997
0.999999999975
0.999999999962
0.99999999996
0.999999999961
0.999999999971
0.999999999988
0.999999999995
1.00000000001
1.00000000002
1.00000000002
1.00000000003
1.00000000004
1.00000000007
1.00000000012
1.0000000002
1.0000000003
1.00000000041
1.00000000055
1.00000000072
1.00000000092
1.00000000096
1.00000000092
1.00000000067
1.00000000046
1.00000000019
0.999999999962
0.999999999682
0.999999999363
0.999999998817
0.999999998002
0.999999997314
0.999999996945
0.999999997068
0.999999998044
1.00000000041
1.00000000221
1.00000000636
1.00000001093
1.0000000144
1.00000002027
1.00000002184
1.00000001859
1.00000001392
1.00000001041
1.00000000558
1.0000000017
0.999999997878
0.999999995508
0.99999999496
0.999999994891
0.999999994213
0.999999993144
0.99999999144
0.999999989627
0.999999988161
0.999999988606
0.999999992887
1.00000000604
1.0000000222
1.00000004086
1.00000005264
1.00000008822
1.00000010724
1.00000016205
1
1
1
1
1
1
1
1
1
1
1
1
1
1
1
1
1
1
1
1
1
1
1
1
1
1
1
1
1
1
1
1
1
1
1
1
1
1
1
1
1
1
1
1
1
1
1
1
1
1
1
1
1
1
1
1
1
1
1
1
1
1
1
1
1
1
1
1
1
1
1
1
1
1
1
1
1
1
1
1
1
1
1
1
1
1
1
1
1
1
1
1
1
1
1
1
1
1
1
1
1.00000000001
1.00000000001
1.00000000001
1.00000000001
1.00000000001
1.00000000001
1.00000000001
1
1
1
1
1
1
1
1
1
1.00000000001
1.00000000003
1.00000000004
1.00000000005
1.00000000008
1.00000000014
1.00000000018
1.0000000002
1.0000000002
1.00000000017
1.00000000009
1.00000000003
0.999999999992
0.999999999943
0.999999999898
0.99999999989
0.999999999895
0.999999999923
0.999999999996
1.00000000005
1.00000000011
1.0000000002
1.00000000033
1.00000000048
1.00000000066
1.00000000087
1.00000000098
1.00000000107
1.00000000112
1.00000000112
1.0000000011
1.00000000108
1.00000000088
1.0000000002
0.999999999725
0.999999998981
0.999999997953
0.999999997152
0.999999996592
0.99999999636
0.999999996576
0.999999997488
0.999999998799
1.00000000016
1.00000000057
1.0000000012
1.00000000491
1.00000000953
1.00000002064
1.00000004973
1.00000007226
1.0000000802
1.00000008459
1.00000008515
1.00000008572
1.00000008668
1.0000000871
1.0000000868
1.00000008585
1.00000008421
1.00000007644
1.00000006971
1.00000006183
1.0000000557
1.00000005324
1.0000000559
1.00000006977
1.00000008509
1.00000008692
1.00000007297
1.00000001687
0.999999974715
0.999999986962
1.0000001753
1
1
1
1
1
1
1
1
1
1
1
1
1
1
1
1
1
1
1
1
1
1
1
1
1
1
1
1
1
1
1
1
1
1
1
1
1
1
1
1
1
1
1
1
1
1
1
1
1
1
1
1
1
1
1
1
1
1
1
1
1
1
1
1
1
1
1
1
1
1
1
1
1
1
1
1
1
1
1
1
1
1
1
1
1
1
1
1
1
1
1
0.999999999999
0.999999999999
0.999999999998
0.999999999998
0.999999999996
0.999999999993
0.99999999999
0.999999999989
0.999999999991
0.999999999997
1
1.00000000001
1.00000000001
1.00000000001
1.00000000001
1.00000000001
1.00000000001
1.00000000001
1.00000000001
1.00000000001
1.00000000001
1.00000000001
1.00000000001
1
1
1
1.00000000001
1.00000000002
1.00000000006
1.00000000012
1.00000000022
1.00000000033
1.00000000042
1.00000000056
1.00000000059
1.00000000057
1.00000000049
1.00000000037
1.00000000022
1.00000000006
0.999999999956
0.99999999988
0.999999999842
0.999999999864
0.999999999954
1.00000000004
1.00000000016
1.00000000027
1.00000000031
1.00000000021
0.999999999976
0.999999999608
0.999999998914
0.999999997949
0.999999996901
0.999999996579
0.999999996726
0.9999999975
0.999999997755
0.999999997675
0.999999997529
0.999999997426
0.999999997697
1.00000000095
1.0000000053
1.00000001072
1.00000001315
1.00000000895
0.999999999881
0.99999998678
0.999999964746
0.999999949729
0.999999942878
0.999999945889
0.999999972952
1.00000003837
1.0000000668
1.00000012738
1.00000014672
1.00000017378
1.00000019121
1.00000020921
1.00000021599
1.00000021635
1.00000021317
1.00000019886
1.00000018944
1.0000001814
1.00000017612
1.00000017644
1.00000018131
1.00000018609
1.0000001749
1.00000011369
0.999999952662
0.999999727898
0.99999939767
0.999999341383
0.999999716049
1
1
1
1
1
1
1
1
1
1
1
1
1
1
1
1
1
1
1
1
1
1
1
1
1
1
1
1
1
1
1
1
1
1
1
1
1
1
1
1
1
1
1
1
1
1
1
1
1
1
1
1
1
1
1
1
1
1
1
1
1
1
1
1
1
1
1
1
1
1
1
1
1
1
1
1
1
1
1
1
1
1
1
1
1
1
1
1
1
1
1
1
1
1
1
0.999999999996
0.999999999988
0.999999999968
0.999999999942
0.999999999917
0.999999999906
0.999999999907
0.999999999916
0.999999999924
0.999999999934
0.999999999945
0.999999999956
0.999999999967
0.999999999975
0.999999999981
0.999999999984
0.999999999984
0.999999999982
0.999999999973
0.999999999956
0.999999999921
0.99999999984
0.999999999704
0.999999999654
0.999999999595
0.999999999534
0.999999999464
0.999999999388
0.999999999424
0.999999999743
1.00000000025
1.00000000052
1.00000000075
1.00000000094
1.00000000101
1.00000000098
1.00000000073
1.00000000051
1.0000000002
0.999999999986
0.999999999601
0.999999999039
0.999999998687
0.999999998096
0.999999997223
0.999999995651
0.999999993278
0.99999999152
0.999999989297
0.9999999866
0.999999985035
0.999999985136
0.999999985768
0.99999999019
0.9999999942
0.999999997071
1.00000000355
1.00000000898
1.00000001478
1.00000002403
1.000000036
1.00000004422
1.00000004229
1.00000001604
0.999999984611
0.999999931802
0.999999860755
0.999999780205
0.999999711354
0.999999651995
0.999999594178
0.999999610441
0.999999697278
0.999999826714
0.999999871888
0.999999920026
0.999999972755
1.00000001176
1.00000002736
1.00000005494
1.00000007563
1.00000011253
1.00000013115
1.00000015704
1.00000017941
1.00000019768
1.00000020035
1.00000016555
1.00000007259
0.999999912668
0.999999609164
0.999999255376
0.999998422071
0.999997760665
0.999997733504
1
1
1
1
1
1
1
1
1
1
1
1
1
1
1
1
1
1
1
1
1
1
1
1
1
1
1
1
1
1
1
1
1
1
1
1
1
1
1
1
1
1
1
1
1
1
1
1
1
1
1
1
1
1
1
1
1
1
1
1
1
1
1
1
1
1
1
1
1
1
1
1
1
1
1
1
1
1
1
1
1
1
1
1
1
1
1
1
1
1
1.00000000001
1.00000000001
1.00000000002
1.00000000002
1.00000000004
1.00000000005
1.00000000005
1.00000000003
0.999999999996
0.999999999916
0.999999999814
0.99999999975
0.999999999729
0.999999999724
0.999999999726
0.999999999734
0.999999999753
0.999999999777
0.999999999801
0.999999999823
0.999999999841
0.999999999858
0.999999999878
0.999999999889
0.999999999868
0.999999999789
0.999999999576
0.999999999033
0.999999998813
0.999999998486
0.999999997391
0.999999996366
0.999999994772
0.999999993917
0.999999994043
0.999999995283
0.999999996514
0.999999997349
0.999999999572
1.00000000045
1.0000000011
1.00000000154
1.00000000171
1.00000000149
1.00000000042
0.999999999399
0.999999996782
0.999999994888
0.999999992529
0.999999989618
0.999999985723
0.999999981952
0.999999980164
0.999999979543
0.999999980244
0.999999982129
0.999999985058
0.999999986324
0.999999991587
1.00000000615
1.00000001507
1.00000002657
1.00000004132
1.00000005328
1.00000006238
1.00000006427
1.00000005582
1.00000004744
1.00000002546
0.999999999926
0.999999974934
0.99999987566
0.999999725776
0.999999547815
0.999999310101
0.999998964246
0.999998658217
0.999998583682
0.999998605567
0.999998644748
0.999998701328
0.999998752808
0.999998821195
0.999998885625
0.999998974139
0.999999110695
0.999999338372
0.999999471
0.999999589229
0.99999970322
0.999999785512
0.999999789325
0.999999692595
0.999999512309
0.999999282258
0.999999226076
0.999998804415
0.999997619638
0.999995716797
0.999992046253
1
1
1
1
1
1
1
1
1
1
1
1
1
1
1
1
1
1
1
1
1
1
1
1
1
1
1
1
1
1
1
1
1
1
1
1
1
1
1
1
1
1
1
1
1
1
1
1
1
1
1
1
1
1
1
1
1
1
1
1
1
1
1
1
1
1
1
1
1
1
1
1
0.999999999999
0.999999999999
0.999999999999
0.999999999999
0.999999999999
0.999999999999
0.999999999999
0.999999999999
0.999999999999
0.999999999999
0.999999999999
1
1
1
1
1
1
1
1.00000000001
1.00000000003
1.00000000004
1.00000000005
1.00000000013
1.00000000024
1.00000000035
1.00000000051
1.00000000058
1.0000000006
1.0000000005
1.00000000031
1.00000000022
1.00000000014
1.00000000006
0.999999999994
0.999999999938
0.999999999906
0.999999999894
0.999999999897
0.999999999907
0.999999999941
1.00000000008
1.00000000034
1.00000000052
1.0000000007
1.00000000054
1.00000000008
0.999999999813
0.999999999356
0.999999997621
0.999999993382
0.999999989062
0.999999986567
0.999999986108
0.999999986179
0.999999986477
0.999999987384
0.999999990845
0.999999993755
0.999999995401
0.999999997962
0.999999999419
1.00000000072
1.00000000112
1.00000000053
0.999999998751
0.999999996966
0.999999994652
0.999999993774
0.999999994536
0.999999998199
1.00000000683
1.00000001636
1.00000003223
1.00000004088
1.00000004186
1.00000003938
1.00000003745
1.00000004448
1.00000005246
1.00000006071
1.00000006306
1.00000005657
1.00000002188
0.999999973491
0.999999917982
0.999999958749
1.00000006606
1.00000037186
1.00000068717
1.00000078608
1.00000080873
1.00000069915
1.00000020987
0.99999973543
0.999998585807
0.999997620264
0.999997118831
0.999996957537
0.999996818886
0.999996729082
0.999996742483
0.999996819919
0.999997032017
0.999997240513
0.999997650761
0.999997930313
0.99999815009
0.99999837476
0.999998512125
0.999998509375
0.999998390409
0.999998274594
0.99999857918
0.99999967418
1.00000044452
0.999998984631
0.999993044342
0.999981168339
1
1
1
1
1
1
1
1
1
1
1
1
1
1
1
1
1
1
1
1
1
1
1
1
1
1
1
1
1
1
1
1
1
1
1
1
1
1
1
1
1
1
1
1
1
1
1
1
1
1
1
1
1
1
1
1
1
1
1
1
1
1
1
1
1
1
1.00000000001
1.00000000001
1.00000000001
1.00000000001
1.00000000001
1.00000000001
1.00000000001
1.00000000001
1
1
1
1
1
1
1
1
1
1
1
1
1
1
0.999999999998
0.999999999978
0.999999999914
0.999999999876
0.999999999853
0.999999999839
0.999999999869
1.0000000001
1.00000000028
1.00000000084
1.0000000016
1.00000000235
1.00000000285
1.00000000292
1.00000000284
1.00000000268
1.00000000246
1.00000000223
1.00000000198
1.00000000173
1.00000000151
1.00000000134
1.00000000119
1.00000000114
1.00000000119
1.00000000155
1.00000000286
1.00000000512
1.00000000623
1.00000000843
1.00000001008
1.00000001103
1.00000001158
1.00000001207
1.00000001094
1.00000000585
1.00000000053
0.999999993543
0.999999989288
0.999999985017
0.999999982703
0.999999982939
0.999999983541
0.999999985572
0.999999987997
0.999999992412
1.00000000078
1.00000000582
1.00000002059
1.00000003126
1.00000003926
1.00000005806
1.00000008184
1.00000010656
1.00000013273
1.00000016065
1.00000018103
1.00000017903
1.00000015604
1.0000001387
1.00000009265
1.00000006738
1.00000003454
1.00000000008
0.999999940274
0.999999853241
0.999999708525
0.999999545082
0.999999471578
0.999999717523
1.00000025468
1.00000131075
1.00000248921
1.00000313707
1.00000402475
1.00000494288
1.00000525223
1.00000494809
1.00000331442
1.00000097941
0.999999796384
0.999999028899
0.999998552681
0.999998043129
0.999997657672
0.999997587454
0.999997367602
0.999997006122
0.999996851682
0.999996848583
0.999996849942
0.999996844373
0.999996791282
0.999996704045
0.99999671379
0.999997090987
0.99999908953
1.00000149681
1.00000450483
1.00000560859
0.999994975722
0.999970887471
1
1
1
1
1
1
1
1
1
1
1
1
1
1
1
1
1
1
1
1
1
1
1
1
1
1
1
1
1
1
1
1
1
1
1
1
1
1
1
1
1
1
1
1
1
1
1
1
1
1
1
1
1
1
1
1
1
1
1
1
0.999999999999
0.999999999999
0.999999999998
0.999999999997
0.999999999997
0.999999999997
0.999999999998
1
1
1.00000000001
1.00000000001
1.00000000002
1.00000000002
1.00000000002
1.00000000002
1.00000000002
1.00000000002
1.00000000002
1.00000000002
1.00000000002
1.00000000002
1.00000000002
1.00000000001
1.00000000001
1
0.999999999997
0.999999999989
0.999999999985
0.999999999964
0.999999999856
0.999999999595
0.999999999472
0.999999999283
0.999999998877
0.99999999803
0.999999997232
0.999999996878
0.999999997128
0.999999998532
1.0000000006
1.00000000159
1.00000000358
1.00000000418
1.00000000448
1.00000000457
1.00000000449
1.00000000421
1.00000000383
1.0000000034
1.00000000285
1.00000000233
1.00000000194
1.00000000133
1.00000000116
1.0000000029
1.00000000595
1.00000001077
1.00000002539
1.00000003311
1.00000003853
1.00000006052
1.00000009345
1.00000011142
1.00000011091
1.00000009475
1.00000007033
1.00000005612
1.00000003667
1.00000002243
1.00000000267
0.999999992724
0.999999985456
0.999999982692
0.999999984569
0.999999999236
1.0000000136
1.00000006569
1.00000010831
1.00000014188
1.00000018124
1.00000022834
1.00000027548
1.0000002926
1.00000029268
1.00000026767
1.00000020916
1.00000012983
1.00000009712
1.00000001704
0.999999893544
0.999999733738
0.999999584824
0.999999387083
0.999999194687
0.999998991085
0.999998888549
0.999998967586
0.999999603639
1.00000003326
1.00000180501
1.00000342993
1.00000528532
1.00000767242
1.0000110851
1.00001435372
1.00001604823
1.00001584605
1.00001422613
1.00001263217
1.00001186251
1.00001141299
1.0000107075
1.00000939885
1.00000840637
1.00000562552
1.00000375095
1.00000140241
1.00000016382
0.999998915034
0.999997887379
0.999997168784
0.99999686716
0.99999721454
0.999998511234
1.00000175961
1.00000371864
1.00000567936
1.00001176077
1.00001553696
0.999997067982
1
1
1
1
1
1
1
1
1
1
1
1
1
1
1
1
1
1
1
1
1
1
1
1
1
1
1
1
1
1
1
1
1
1
1
1
1
1
1
1
1
1
1
1
1
1
1
1
1
1
1
1
1
1
1
1
0.999999999999
0.999999999996
0.99999999999
0.999999999976
0.99999999997
0.999999999964
0.999999999956
0.999999999944
0.999999999937
0.999999999924
0.999999999907
0.999999999895
0.99999999989
0.99999999989
0.999999999897
0.999999999925
0.999999999943
0.99999999996
0.999999999973
0.999999999987
0.999999999996
1
1.00000000001
1.00000000001
1
0.999999999998
0.999999999988
0.999999999975
0.999999999961
0.999999999947
0.999999999943
0.999999999946
0.99999999997
1.0000000001
1.00000000021
1.00000000023
1.00000000006
0.999999999389
0.999999996933
0.999999992581
0.999999987415
0.999999982007
0.999999979176
0.999999979075
0.999999980705
0.99999998607
0.99999998857
0.999999990539
0.999999992475
0.99999999411
0.999999995165
0.999999995757
0.999999995939
0.999999995712
0.99999999542
0.999999994645
0.999999992642
0.99999998589
0.999999979869
0.999999979457
0.999999985698
1.00000000798
1.00000002166
1.00000003425
1.0000001096
1.00000018681
1.00000024313
1.00000026393
1.00000025423
1.00000022894
1.0000002106
1.00000019406
1.00000016313
1.00000009506
1.00000006371
1.00000004312
1.00000001692
1.00000000624
1.00000000711
1.00000002726
1.00000006786
1.0000000945
1.00000012789
1.00000015143
1.00000015375
1.00000012102
1.00000003755
0.999999965632
0.999999846813
0.999999697094
0.999999641734
0.999999636051
0.999999592559
0.999999253108
0.999998950623
0.999998668891
0.999998432135
0.999998396837
0.999998701466
0.999999351389
0.999999781351
0.999999409755
0.999998037733
0.999996642326
0.999996668567
0.999998984664
1.00000163107
1.00000848519
1.00001574374
1.00002468979
1.00003222423
1.00003358499
1.00003390049
1.00003393012
1.00003383482
1.00003333718
1.00003150555
1.00002796185
1.00002353769
1.00001949362
1.0000141994
1.00001132153
1.00000846849
1.0000056214
1.00000389763
1.00000333138
1.00000424838
1.0000060374
1.00000635058
1.00000072281
0.999990991427
1.00000098591
1.00007550318
1.00014701806
1
1
1
1
1
1
1
1
1
1
1
1
1
1
1
1
1
1
1
1
1
1
1
1
1
1
1
1
1
1
1
1
1
1
1
1
1
1
1
1
1
1
1
1
1
1
1
1
1
1
1
1
0.999999999999
0.999999999996
0.999999999993
0.999999999988
0.999999999985
0.999999999979
0.999999999961
0.999999999949
0.999999999945
0.999999999942
0.999999999936
0.999999999925
0.999999999913
0.999999999885
0.999999999824
0.999999999767
0.999999999724
0.999999999676
0.999999999651
0.999999999651
0.999999999674
0.999999999696
0.999999999723
0.999999999754
0.999999999781
0.999999999804
0.99999999982
0.999999999828
0.999999999832
0.999999999833
0.999999999841
0.999999999862
0.999999999899
0.999999999944
1.00000000004
1.00000000011
1.0000000005
1.00000000259
1.0000000054
1.00000000675
1.0000000098
1.00000001203
1.00000001161
1.00000000655
0.999999999154
0.999999983487
0.99999996358
0.999999948819
0.999999943284
0.999999942747
0.999999944494
0.99999994751
0.999999951702
0.999999956202
0.999999960868
0.999999964504
0.999999968238
0.999999971837
0.99999997544
0.999999978299
0.999999975723
0.999999960623
0.999999924203
0.999999905292
0.999999880004
0.999999831879
0.999999816112
0.999999816841
0.999999844844
0.999999945523
1.00000000935
1.00000008356
1.00000016373
1.00000019673
1.00000021007
1.00000022324
1.00000022965
1.00000020854
1.00000015119
1.000000123
1.00000006883
1.00000002807
0.999999993049
0.9999999401
0.999999765079
0.99999952346
0.99999944649
0.999999345827
0.999999187454
0.999998917839
0.999998697184
0.999998432738
0.999998231921
0.999998298806
0.999998631267
0.999998761828
0.999998869636
0.999998759056
0.99999853396
0.999998447285
0.999998609125
0.9999995751
1.00000162315
1.00000352557
1.00000354278
0.999998090968
0.999991189944
0.999973947651
0.999963554054
0.999961409087
0.999961810604
0.999966791856
0.999982103607
1.0000019728
1.00002324202
1.00003136011
1.00004121899
1.00004386999
1.0000449629
1.00004532752
1.00004418408
1.00004162901
1.00003829271
1.00003546073
1.00003090713
1.00002807068
1.00002416501
1.00001967681
1.00001790387
1.00001761397
1.00001843627
1.00001908996
1.00001394967
0.999988373924
0.999936051537
0.999945051992
1.00015650507
1.00048429264
1
1
1
1
1
1
1
1
1
1
1
1
1
1
1
1
1
1
1
1
1
1
1
1
1
1
1
1
1
1
1
1
1
1
1
1
1
1
1
1
1
1
1
1
1
1
1
1
1
0.999999999999
0.999999999997
0.999999999994
0.99999999999
0.999999999986
0.999999999983
0.999999999985
1
1.00000000004
1.00000000009
1.00000000024
1.00000000031
1.00000000042
1.00000000056
1.00000000064
1.00000000072
1.00000000083
1.0000000009
1.00000000091
1.00000000089
1.00000000074
1.00000000062
1.00000000037
1.00000000006
0.9999999999
0.999999999776
0.999999999681
0.999999999627
0.999999999591
0.99999999958
0.999999999586
0.999999999625
0.999999999675
0.999999999812
0.999999999988
1.00000000022
1.00000000042
1.00000000065
1.00000000079
1.00000000155
1.00000000637
1.00000001029
1.0000000144
1.00000002641
1.00000004215
1.0000000728
1.00000009928
1.00000010555
1.00000010299
1.00000008589
1.00000004004
1.000000007
0.999999975672
0.999999952597
0.999999944602
0.999999940383
0.999999940409
0.999999945163
0.999999951014
0.999999960959
0.999999972232
0.999999984675
1.00000000709
1.00000001462
0.999999994248
0.999999954313
0.99999990228
0.999999747961
0.999999384557
0.999999165638
0.999999064645
0.999998799587
0.999998632133
0.999998629924
0.999998715966
0.999999089139
0.999999375376
0.999999507448
0.999999632939
0.999999799675
0.999999981299
1.00000002857
1.00000002376
0.999999985672
0.999999937136
0.999999814144
0.999999545564
0.999998826869
0.999997850832
0.999997522714
0.999997219205
0.999996831669
0.999996386529
0.999996152041
0.999996078939
0.999996375169
0.999997545794
0.999998692908
0.999998987191
0.999999411898
1.0000007428
1.00000177713
1.00000277591
1.00000428464
1.00000654177
1.00000966334
1.00001215588
1.00001076079
0.999994799847
0.999975851229
0.999928151884
0.999887255431
0.99986512125
0.999836028675
0.999828083167
0.999838614472
0.999871214371
0.999923347873
0.999961234473
0.999985462287
0.999991414943
0.999994192079
0.999996882768
1.00000059765
1.0000096609
1.00001670899
1.00002646376
1.00003257037