/*--------------------------------*- C++ -*----------------------------------*\
  =========                 |
  \\      /  F ield         | OpenFOAM: The Open Source CFD Toolbox
   \\    /   O peration     | Website:  https://openfoam.org
    \\  /    A nd           | Version:  8
     \\/     M anipulation  |
\*---------------------------------------------------------------------------*/
FoamFile
{
    version     2.0;
    format      ascii;
    class       volScalarField;
    location    "0.000332";
    object      magGradrho;
}
// * * * * * * * * * * * * * * * * * * * * * * * * * * * * * * * * * * * * * //

dimensions      [1 -4 0 0 0 0 0];

internalField   nonuniform List<scalar> 
22800
(
0.675169151581
0.677032617989
0.679966329874
0.687580360787
0.697744603226
0.711787744415
0.731068106653
0.753014666964
0.775181431007
0.799282548292
0.827592984413
0.861389378216
0.895089474798
0.92530242974
0.949608525083
0.966723981889
0.976488750875
0.979903441029
0.977098624741
0.968810630874
0.953673726043
0.930575425424
0.902853288474
0.878226645378
0.86049776975
0.848219104414
0.835045341162
0.813235957794
0.787591018798
0.77127124292
0.769991986609
0.779568437762
0.793376568827
0.809131636681
0.827118229763
0.845265562708
0.858250148318
0.86371332434
0.862198272801
0.85710611833
0.85673094603
0.865842665574
0.885502791118
0.90878814795
0.925009216911
0.940468157951
0.96597421863
1.00410601587
1.04997410811
1.10334347994
1.15071819103
1.19758388394
1.23719321123
1.26070407275
1.2694513363
1.27053634026
1.26474348096
1.25253066998
1.2400067015
1.23089918271
1.23028117855
1.24057964711
1.2483360636
1.24827397134
1.24491808915
1.23355860969
1.21619386246
1.19472817262
1.17252767456
1.1562337404
1.15839763156
1.17948321153
1.22214475991
1.2741637216
1.31543549896
1.34173020203
1.34231673791
1.34457298922
1.35561174715
1.35884705421
1.36096668899
1.36874662477
1.38392414866
1.41391749083
1.44422926978
1.44643460175
1.40253651276
1.34409627539
1.30421210396
1.28144418136
1.28269301579
1.31654707963
1.33789454199
1.38293296613
1.38112322115
1.34126634831
1.28771039436
1.27619772527
1.31046388048
1.37085434178
1.43759965495
1.48102217072
1.48987738875
1.4861790632
1.46814608904
1.44037573706
1.3901689513
1.32570343578
1.2774857025
1.25427459818
1.28939424851
1.3122689235
1.36365104664
1.41276956152
1.44640552112
1.42979220083
1.35984148114
1.26682613356
1.17915703521
1.11694524606
1.09259736631
1.10538441229
1.15908716533
1.22147736353
1.30135736808
1.2700473538
1.16213874907
1.03178950704
0.927639002445
0.873531365555
0.846698593372
0.84140893834
0.85429300875
0.8605031507
0.851515640562
0.862439541676
0.809710123622
0.78315201421
0.72800612332
0.660630146686
0.591842964553
0.527696731282
0.467867800216
0.427946111384
0.417334700813
0.426162356799
0.472610216849
0.445536335054
0.385737585752
0.327885977698
0.281035527398
0.237531363711
0.215866538268
0.21252769695
0.246737526976
0.23780188633
0.218215719024
0.164447632211
0.126711761221
0.123969585401
0.128924596119
0.131727637129
0.129379063477
0.12845029966
0.143685175358
0.0976824422845
0.0575845647629
0.0287995166374
0.0263544801839
0.0488583904835
0.0753329111844
0.09847309619
0.138908565678
0.145365291459
0.144953780278
0.140151725445
0.128819063832
0.0981485774907
0.0576710637837
0.0335018687614
0.0233243106223
0.0232537588848
0.0451381749691
0.0730353604075
0.0937974265633
0.0860070450401
0.0733430024943
0.0645990383039
0.0576395955984
0.0241381019733
0.607819645803
0.578481524033
0.558705371219
0.539315098379
0.52158888389
0.50875015595
0.500114330089
0.495282409961
0.489177590582
0.482452872325
0.476414051616
0.468851799318
0.462263860764
0.457443975031
0.455178720577
0.455572949275
0.457486837842
0.459770568506
0.462311016742
0.465196406986
0.468702466093
0.471214910333
0.468808411378
0.463008190024
0.461191567775
0.464484556453
0.469175089307
0.470310168337
0.466578966992
0.462960115849
0.463383893464
0.470147654131
0.483070182879
0.500635721973
0.520472229699
0.539408451996
0.555140899436
0.568789447427
0.58253805183
0.597163905716
0.61168722113
0.624472829864
0.635747090749
0.645315289802
0.661694561395
0.692430833858
0.733095458226
0.775456601214
0.818452914871
0.861749945592
0.902086246847
0.944458310938
0.97614946811
0.987849253031
0.99040790056
0.99452833921
0.997797491923
0.99897827474
0.996178630323
0.99037852397
0.983021374343
0.97291518003
0.964760184249
0.960889948883
0.960101813816
0.964789928883
0.972702724232
0.982082624653
0.988240094258
0.985942810472
0.974337088741
0.958356907561
0.940160101495
0.916485062998
0.908879260663
0.91979651441
0.942667497282
0.949264599143
0.942815001744
0.931363540511
0.916252143008
0.90116028593
0.893648357904
0.899131648874
0.919173902956
0.953639529659
0.990469744603
0.998462286325
0.988258099406
0.977454227132
0.975243189498
0.988552924542
1.02187137038
1.07251173307
1.11920070027
1.14818409787
1.15444769768
1.15988108531
1.16515269206
1.16985853079
1.17433219286
1.17714339087
1.17393292996
1.15777143553
1.1347833228
1.1153391279
1.1054674917
1.09727884726
1.07363285029
1.04355119636
1.0315065125
1.05301148493
1.07488058335
1.09737823076
1.10387497451
1.09059395135
1.05490917523
1.00667309522
0.965275667084
0.942710295576
0.932285948833
0.94306191351
0.978350112313
1.01189319494
1.02436211372
0.999185954243
0.954072381542
0.913388469347
0.886141273378
0.871206662814
0.860819611088
0.852074393436
0.841443663498
0.826786240892
0.807910736978
0.791393420541
0.767081030805
0.704624877874
0.642324683668
0.585903273083
0.542046850209
0.513509382472
0.485094907608
0.463080017903
0.451935765002
0.449656946226
0.453103153323
0.410929732489
0.351286693288
0.307541466067
0.281933485267
0.259461832409
0.238071923461
0.226152865571
0.251919857439
0.265971007881
0.240215334869
0.188275645613
0.135344860143
0.101793696795
0.0875838489913
0.0837298458967
0.088108923097
0.117654710392
0.135960749702
0.115631668154
0.093326738068
0.0875567684287
0.0947152412602
0.102695050551
0.112556667005
0.117106335248
0.12500880031
0.125720624574
0.127237985238
0.132284342785
0.137615855369
0.132739890024
0.112561925268
0.0864449572346
0.0654889453676
0.0574617681779
0.0598237171347
0.0624311256315
0.0552339366231
0.0411609094697
0.0215253592608
0.00713922928844
0.0177331678868
0.0433095958661
0.701985031529
0.65350193392
0.634454971204
0.613222037758
0.592233145843
0.569194379963
0.549659003409
0.531665061986
0.512977374324
0.492761034752
0.474383752234
0.456811459764
0.439670269367
0.426569353542
0.416753937231
0.406757696988
0.394427047317
0.382884091943
0.374439060604
0.366409959887
0.359784521123
0.357833244777
0.353504660714
0.341161990429
0.331474299699
0.331976291735
0.339129010978
0.341410759589
0.335490183221
0.329230864484
0.326109177169
0.330037381603
0.339384992947
0.353162014402
0.368629423601
0.379354090542
0.38506805572
0.394574701215
0.412222235795
0.437774946576
0.468285330276
0.499228518533
0.528987539016
0.557826700556
0.594096974763
0.641833259982
0.696280739546
0.743760509851
0.7963453493
0.85026034634
0.90073137552
0.953284318507
0.988400444719
0.994048241093
0.991288416536
0.991456938708
0.993566507656
1.00289404646
1.01610033285
1.02468211749
1.02445063788
1.0125222836
0.997034766359
0.984084943246
0.97519121187
0.972720463566
0.975285268803
0.983932879102
0.994812805456
1.00130027577
0.996178992441
0.977218338547
0.952078518606
0.919807724779
0.886892765882
0.86840415959
0.863909511592
0.868995875815
0.872207676468
0.870756539898
0.86139690038
0.841167989114
0.804418932661
0.762646176171
0.743362819852
0.75866088135
0.795753275122
0.82367202068
0.821720030226
0.808029091653
0.797019302161
0.80896992812
0.863754218858
0.94910496208
1.03516837246
1.08908062084
1.10491811886
1.11473954568
1.11694877082
1.11041742527
1.09908676074
1.08769094142
1.08135662453
1.07445826596
1.0623587533
1.04768210598
1.0342870985
1.0232771817
1.01858979396
1.0123197481
1.00738077456
1.00952551274
0.994875880889
0.971699546611
0.943649426298
0.92005958257
0.892948628738
0.85760353371
0.819862703898
0.787706695751
0.767889343576
0.772049248201
0.793928340223
0.831882256279
0.860430344083
0.864351166366
0.841446478472
0.822637377593
0.811946230686
0.805253126215
0.797460495352
0.790070631082
0.778717085241
0.767436507985
0.756608166895
0.74044656567
0.710931351302
0.632478853438
0.563353704793
0.509004940582
0.469531225623
0.445003167708
0.42269123992
0.408339617906
0.403851305561
0.403576527323
0.403251885481
0.36531057352
0.314869076557
0.286740610507
0.27505195036
0.272350460381
0.263049763182
0.245125196261
0.253473396599
0.268010442951
0.231308139029
0.174366231668
0.115675723467
0.0817411360434
0.0684067273374
0.0660382983847
0.0787856943966
0.116954388443
0.142654877098
0.131919622943
0.122732536343
0.123963353075
0.12738280976
0.134717899269
0.133943943141
0.120131824598
0.103768336341
0.0962074391973
0.0963252884989
0.107593377265
0.121045415883
0.128193677427
0.119624039018
0.0974960231128
0.0774711963453
0.0681839824499
0.0627344217985
0.0525373033305
0.0411345823877
0.0347347976546
0.0284253400627
0.0132442944423
0.0333103933205
0.0528008906246
0.714759312738
0.68195173308
0.67567880043
0.657096499186
0.64184832617
0.618299501168
0.59087299054
0.560274328905
0.530424311503
0.502070694841
0.477326081521
0.459274008227
0.4482056607
0.439741365608
0.425070605721
0.399906045298
0.365681279171
0.332387600115
0.309564019372
0.284622075969
0.255060149448
0.241859494182
0.235426165385
0.209299221842
0.179197776682
0.172057174148
0.182056838216
0.186697619159
0.185845440751
0.189708434747
0.196972743507
0.209149455026
0.223918285175
0.243351168775
0.264400741485
0.277817083614
0.288233941599
0.307661414102
0.339908000115
0.382538405328
0.42687148504
0.467008034297
0.505475696117
0.547117976056
0.601469099677
0.669085854192
0.733870712866
0.78756221989
0.852121201694
0.913959239344
0.974652249142
1.03906275214
1.0706079552
1.0636453555
1.05468780793
1.05108436234
1.04550920209
1.04126859279
1.04745586214
1.06432300664
1.07874305344
1.08173329169
1.0741768439
1.06119135724
1.04846050368
1.03799105941
1.03117082291
1.03336069125
1.04502698343
1.06013637107
1.07144266786
1.0681458309
1.04598439465
0.998476727581
0.931834982709
0.880537729288
0.840948984842
0.812326043915
0.786982780305
0.764083566623
0.741328288192
0.719592905138
0.687524185857
0.628063074023
0.563978173726
0.536887488579
0.547177027277
0.584252311238
0.610225647618
0.625213472929
0.640139418589
0.676729093757
0.764770407417
0.898361800166
1.02812027596
1.10145064994
1.12008851571
1.1264587977
1.11937094961
1.09975517416
1.07516969891
1.0553465726
1.04938077721
1.05678441689
1.06688539579
1.06586499405
1.05539784994
1.03917943599
1.02728770595
1.01473246606
1.00388353789
0.964115334598
0.902159088287
0.823372854412
0.756951320064
0.717752377205
0.6980099023
0.673237079797
0.63810476595
0.605994701034
0.591438903093
0.599223418474
0.629185417684
0.688538217797
0.744679819383
0.776906932537
0.783212588201
0.795805317129
0.811479685111
0.808322143419
0.789255146013
0.765084128708
0.737680076671
0.718957229402
0.716889533195
0.716177182155
0.679607810256
0.586634758437
0.498360471609
0.43472690367
0.381733828791
0.33675129974
0.289900857948
0.25880316927
0.257484279378
0.279779617678
0.310685965317
0.293191227559
0.275655805349
0.272214582218
0.277669577203
0.283103911295
0.276385251471
0.256689431302
0.266515118062
0.280533793518
0.231146382314
0.161900332437
0.090564250231
0.0438688655589
0.0205400685905
0.0230364860486
0.0531673978134
0.107476097232
0.142073316838
0.1329092198
0.123005404657
0.126893023098
0.135965680959
0.140808062771
0.138980548119
0.12614290739
0.0992743704646
0.0778951610918
0.0720564220592
0.0836819809092
0.0972544681513
0.10701462072
0.107341389428
0.098570933174
0.0872873825394
0.077685160483
0.061323632793
0.036448100943
0.0282901081872
0.0304358423751
0.0256726647975
0.0184318602699
0.0480746227687
0.0735645612922
0.759462967684
0.714987285121
0.720490946788
0.712471453226
0.711337513044
0.694529069818
0.657364887338
0.618397370057
0.58621933215
0.559540452454
0.541274474947
0.533755353383
0.532493882012
0.530021672206
0.514851476719
0.484605640067
0.442890913599
0.403460210284
0.375256795696
0.33735276196
0.291764555912
0.269941338592
0.259150443239
0.21678452119
0.158841821493
0.134809459147
0.133036842179
0.13190146296
0.145814263709
0.164729014739
0.18386661014
0.199831214895
0.214602087107
0.231509028197
0.251663609626
0.273586089578
0.299284376824
0.335595249913
0.3850370448
0.441141896194
0.493818785709
0.538128386911
0.582266772702
0.637954628663
0.711955238814
0.794462765362
0.857619530574
0.908336249874
0.970623102261
1.0240040908
1.08329415905
1.15081366363
1.18085072011
1.17091949034
1.15142850918
1.13078961518
1.10997859632
1.08819853158
1.07402565624
1.07554375973
1.09370170812
1.11975564464
1.14445164945
1.16560941461
1.17645486681
1.17368507722
1.15613680432
1.13332393148
1.12106740199
1.12333722447
1.14010024718
1.16368148312
1.17572457146
1.1512922729
1.07599996531
0.994509583778
0.922608597149
0.852831375109
0.79299997889
0.741024363656
0.693553488411
0.656858786782
0.634671635727
0.598311485857
0.525530893407
0.455836008782
0.435692934552
0.453653972589
0.494328743757
0.546262152731
0.6041314209
0.674042071166
0.793073033705
0.973619558394
1.14712076388
1.22960213396
1.22161632946
1.19745055945
1.17346711949
1.14540752852
1.11121583521
1.084051946
1.07739884997
1.0877451455
1.10726370777
1.12436613409
1.1350382027
1.13633081061
1.1275114685
1.10170107053
1.06702320294
1.00237920203
0.907649532573
0.795859348002
0.696511352165
0.625897617352
0.58482272621
0.562145088991
0.541075726032
0.519433390557
0.515438381129
0.533442182633
0.578553575063
0.660327724884
0.739529559635
0.795242044753
0.809167771356
0.830105981445
0.859779338352
0.866862620157
0.84292058076
0.799045596646
0.74840507587
0.721196308799
0.724387888624
0.750901768252
0.715730099749
0.607434205997
0.495039676059
0.412483980631
0.344242770611
0.280594494382
0.203901142334
0.134191844278
0.129141231836
0.185514649018
0.253552694622
0.259791480728
0.26482262572
0.274101118957
0.285294710122
0.285053612249
0.27093474897
0.260859705129
0.290763840546
0.312550931719
0.256440584793
0.172866821672
0.0921876663246
0.0460106011364
0.0362780757265
0.0437950548709
0.0667910740964
0.116165388536
0.14953175708
0.134011573272
0.11246768216
0.101103449112
0.105940587709
0.111519682153
0.118867110212
0.127527479913
0.108295387602
0.075603917032
0.0580993075017
0.0638388159906
0.0711797556534
0.0788546692094
0.0855235248756
0.0913418060945
0.0898812136489
0.0800097425828
0.0567157156789
0.0272356836194
0.0328385592894
0.0363316534173
0.0319593537354
0.0273448319996
0.0626712689805
0.0873804270732
0.807193754411
0.742524624824
0.752831746196
0.764988765192
0.787207038856
0.775622956093
0.726822767988
0.679230539707
0.657386652294
0.637137270104
0.613953548285
0.598441480903
0.590130562087
0.583245429112
0.566245124633
0.538673627205
0.508139875426
0.480577142188
0.455524900735
0.418615882423
0.374553631631
0.345577753239
0.322671987813
0.267514023096
0.190545110067
0.148994260381
0.139141018462
0.148399107517
0.168731276655
0.19148604197
0.213889888185
0.234551505464
0.251116781071
0.26524199418
0.284433550072
0.308415389528
0.337012358658
0.377521047943
0.431056118474
0.496126096452
0.56865451264
0.63932501482
0.703607651397
0.765090312349
0.832129744409
0.896447724783
0.934385329235
0.969485548065
1.02275007356
1.08032059741
1.15379876349
1.23176258339
1.26856204449
1.25578066089
1.2233800822
1.18757405974
1.15402307067
1.13072280481
1.12079773053
1.12160429423
1.12684525641
1.14281109103
1.17662909453
1.21547466979
1.24667215039
1.27506396341
1.29188867358
1.27269338435
1.21880966883
1.16484456529
1.13935200434
1.15029155082
1.18959780133
1.22196644653
1.19108957293
1.10897719817
1.01853968419
0.917772355187
0.825132733491
0.753254430703
0.688644220696
0.627133394051
0.5878010404
0.569732228322
0.530783477701
0.459745976951
0.411365751299
0.410277181344
0.44940841733
0.520421436291
0.611382208249
0.711737951126
0.852037743395
1.05766233041
1.25599301055
1.32842440963
1.27250065852
1.20083633225
1.15793566326
1.13395101493
1.10690288751
1.08387366703
1.0854559793
1.10328022628
1.1284057806
1.15897843464
1.18505844549
1.19609202408
1.18321279514
1.13882446415
1.08215588154
1.01832984798
0.926818532214
0.811685436674
0.692751738243
0.601525435289
0.549492516902
0.534367667719
0.533682891177
0.52369558443
0.525734927902
0.549336042935
0.600521737516
0.693554374884
0.791821290536
0.861135657278
0.851006678314
0.847264508241
0.865859949458
0.879729541315
0.870795772675
0.837908412704
0.789031492266
0.764689665841
0.766224629353
0.803727070372
0.779600367859
0.660884927711
0.5221506414
0.411334139594
0.32848795899
0.265331469241
0.190034230286
0.0904460934451
0.0775010226598
0.176100830549
0.269252305175
0.283108886044
0.278409185977
0.271752755421
0.275459951889
0.268435077445
0.258496137459
0.263363206726
0.309515060451
0.346305943741
0.29527477565
0.202388857119
0.115950678832
0.0778630063042
0.0723249887156
0.0735090717677
0.0921965341976
0.138004252932
0.170790122066
0.149214908485
0.113260645759
0.0831663773313
0.0662928179401
0.0636563770694
0.0813080592655
0.116410597484
0.119446991455
0.0877796565725
0.0626825536625
0.0597917888643
0.0552953586394
0.0557170843679
0.0673826226171
0.0866810874173
0.0997987830169
0.0936271774331
0.0669111129681
0.0404857666058
0.0441759844954
0.0436755869253
0.0381553267136
0.031850746944
0.0715705819693
0.0973769669729
0.860695241882
0.784545736025
0.802730939995
0.826338991303
0.864466617983
0.855496012423
0.818059600958
0.768461598665
0.734167338261
0.702275198466
0.667197968631
0.635916670062
0.614580609852
0.60047691002
0.585906913269
0.570921783707
0.55474956096
0.533860845447
0.51238598317
0.487824756773
0.448191653637
0.40210389361
0.369800956869
0.318304380244
0.235128325006
0.181387197715
0.166879938938
0.169745517189
0.187155246993
0.214884930811
0.24269760249
0.262025191719
0.273480492827
0.294041205844
0.322887651748
0.349522369105
0.373338242899
0.402018147901
0.446225885093
0.515102077365
0.605748104739
0.702709751227
0.793669488907
0.872073936697
0.935213653323
0.987177574868
1.0166659243
1.03681661131
1.08079773487
1.14862109674
1.22685678686
1.3044919804
1.34401647
1.32414895668
1.27809044429
1.23131653167
1.18578392439
1.15435693162
1.15160330828
1.16810489336
1.18120385573
1.19119726524
1.20042937284
1.209569227
1.22488405606
1.25329922643
1.30035046864
1.34524178578
1.33920084895
1.26702220034
1.17152662342
1.10951068621
1.10915260493
1.16560318258
1.21474341471
1.19306008542
1.11302764279
0.990155737367
0.86038374868
0.762760863778
0.689824908088
0.615701068617
0.547713713776
0.509990228892
0.491956417035
0.454166346584
0.41131515244
0.404063490738
0.445395816763
0.525770724455
0.62378350116
0.731313422472
0.884768117711
1.10763172391
1.32461982474
1.38873886984
1.29349959465
1.17451987105
1.1046792288
1.07941103596
1.0661915273
1.05630358568
1.06753225008
1.09011439581
1.11395502052
1.14997533642
1.1842731299
1.19929398353
1.18142892341
1.12969838776
1.07727993126
1.03943851354
0.968464186561
0.858761650673
0.730386725777
0.622161942458
0.555902514169
0.538604878681
0.546929853242
0.54285714276
0.546305857344
0.571925907279
0.623516650263
0.722873216601
0.84066940759
0.911633639418
0.881087490194
0.840660951156
0.830691110598
0.832157972901
0.831684676405
0.831925001085
0.830639679797
0.832268181121
0.8366415972
0.872048198582
0.851808488545
0.720930998044
0.557437363003
0.421740558408
0.324791866353
0.266545506984
0.201784496039
0.0991910373849
0.092148118683
0.205384918607
0.314158562109
0.327793239391
0.294115843913
0.261279481147
0.260321868499
0.259011916107
0.265144759517
0.28104471653
0.333682294573
0.381979544486
0.339588998724
0.240657056602
0.136631901375
0.0750777536005
0.0573273602888
0.0577093825853
0.0859460542932
0.14285218267
0.186087272485
0.166610549119
0.120445835124
0.0805358033932
0.0555321094911
0.0328095978684
0.0480812150312
0.0964201652904
0.119796827687
0.101510445159
0.0736170001818
0.0601708252132
0.0449736151192
0.038638401574
0.0517417534089
0.0760534125252
0.10058927582
0.101427984021
0.0803438986962
0.061164013393
0.0532688557254
0.044874750281
0.0394918990497
0.0341804627982
0.0804436568815
0.109748275671
0.918390447326
0.819390634913
0.852927915634
0.876135473097
0.919206999844
0.922901745043
0.913280257065
0.879493762859
0.830359069124
0.780561548521
0.723539685502
0.665114834438
0.622512192036
0.598116433393
0.588040850703
0.586615761107
0.579416374291
0.558103327859
0.536565069823
0.517072051258
0.474694793695
0.420249348549
0.394015378745
0.358572717705
0.287103841436
0.234399489136
0.204592437327
0.18290870546
0.181549056115
0.209620811018
0.246226508721
0.272728664903
0.297841155596
0.330795925276
0.365423914502
0.390895169278
0.407493015025
0.427076855437
0.459403502946
0.521565986264
0.618613374151
0.730761370083
0.838903830128
0.930584759935
1.0024251178
1.05956661778
1.10851320563
1.15180041746
1.2047201814
1.26597311712
1.32549570407
1.3755416389
1.38323153366
1.35006413488
1.30243446669
1.24446068292
1.17893205258
1.13094431443
1.10856436105
1.10290477804
1.11421780069
1.14139837993
1.16466858191
1.17547193139
1.17881101177
1.17874150139
1.18876281225
1.23557577256
1.3118492104
1.3426835422
1.2721278724
1.15306312117
1.07224907698
1.07569799162
1.15240002195
1.21245378957
1.18797180121
1.08047159332
0.925245385518
0.78723091472
0.692746841026
0.615465236651
0.532845864657
0.464788213071
0.432921828567
0.417860846974
0.403332855685
0.404746571472
0.453176042642
0.539125849149
0.638481627948
0.747643664151
0.908659244333
1.14351509233
1.37370716566
1.43024390418
1.30890401355
1.15840834421
1.06387490253
1.02322047125
1.01154053231
1.01323185032
1.02958829373
1.05008289871
1.06946906627
1.10834536672
1.15210878724
1.17943250408
1.17595214457
1.14089935883
1.10442534974
1.0894939244
1.03516784492
0.924600925943
0.785567541008
0.667144616833
0.583533821861
0.543276103463
0.535555083031
0.527394127581
0.530801256532
0.55602718743
0.608338514657
0.716659984152
0.857566455873
0.943542699845
0.903795375803
0.839477236273
0.807504315868
0.788433426523
0.769973180889
0.770478056807
0.821660965334
0.88354246299
0.917134069319
0.953950708986
0.93695010321
0.793656284665
0.611494779506
0.456286390652
0.342268265963
0.272239681732
0.20601091027
0.111805519442
0.129672465365
0.245802495348
0.356948815925
0.3644704906
0.307888762421
0.260505914862
0.259580811835
0.271240651675
0.292374199774
0.315232473222
0.368424066355
0.424972343558
0.389608655758
0.282004743014
0.159068340173
0.0782613416943
0.0492949734259
0.0517744244353
0.0876224189853
0.149442834748
0.199606306251
0.18450973089
0.133133486625
0.0868382913291
0.0573446215769
0.0355255149235
0.0395732567501
0.0839805958786
0.112921806339
0.108644757043
0.0808198323023
0.057084364343
0.0390865230907
0.0237818764134
0.0354819434603
0.0555888730117
0.0778416770314
0.0854108614787
0.0824167058917
0.0772887523056
0.0642255339661
0.0465907987938
0.0400431035693
0.0389222644033
0.0928882358394
0.132813097469
0.978046781949
0.839623749424
0.875128591838
0.892200381312
0.926533566281
0.947148349563
0.958785202307
0.962050363893
0.943344700402
0.887375033541
0.809157441867
0.728403765568
0.662534543913
0.620387181247
0.602638971895
0.603292297311
0.599009809298
0.571092432724
0.535131817563
0.496875167633
0.433816995872
0.37619930749
0.364997062872
0.348760781555
0.302455736449
0.276395550498
0.261219592886
0.227081421403
0.196426899598
0.208559417882
0.251651379354
0.282720367099
0.309547641265
0.349165343366
0.397427561617
0.441416704928
0.463454374832
0.473308512268
0.49554945572
0.540151223074
0.608190523813
0.710776253585
0.830238469218
0.93575081329
1.02728452211
1.1075933941
1.17544049365
1.2471418198
1.32488811169
1.39384192531
1.44705052119
1.47493060918
1.45930579027
1.38578847089
1.29604771656
1.22794430426
1.16459757768
1.09617642648
1.03603110498
0.995732012536
0.985587065449
1.01208897045
1.05971746698
1.09797731306
1.11500486522
1.10556551707
1.0777642521
1.07287320251
1.13263652695
1.24503401807
1.31265018273
1.25615437806
1.14394995575
1.07836303024
1.10970902483
1.19266420536
1.21560085579
1.14950871843
1.00770957793
0.840654963499
0.705758334889
0.610787869359
0.524756804354
0.447547347714
0.399401539702
0.38507199725
0.390807859896
0.40541111226
0.457069546748
0.548188075399
0.658765440659
0.778428545748
0.942332381868
1.18369110801
1.42236620151
1.47422816071
1.33490149044
1.16171375319
1.05010143623
0.996076888668
0.973195310317
0.96857710236
0.978096788738
0.994698582059
1.02187573878
1.06780429856
1.11868051682
1.16056403155
1.18641042378
1.18570730582
1.16741509727
1.14938965324
1.08475979731
0.96033100523
0.806235785487
0.679684134444
0.586512613372
0.527795429887
0.501138345048
0.48204987115
0.479653055979
0.493929044117
0.54548002194
0.673592502768
0.852110916796
0.96001815348
0.902333221367
0.831909974585
0.811639436876
0.790199140046
0.756044678905
0.727133221002
0.765460058454
0.857532116274
0.941993413768
1.01060395144
1.01900447274
0.876039301118
0.678149585819
0.504071614086
0.3688480732
0.27831920212
0.202374999576
0.122501674416
0.161182666355
0.275008120725
0.383543536073
0.387120076637
0.320890220405
0.267068217621
0.26526010024
0.285115721603
0.314319870158
0.343927024891
0.395656139939
0.461152865506
0.433599854177
0.324295125055
0.189913191894
0.096306176706
0.0647201270474
0.0703749099779
0.106210669351
0.164502697747
0.220135754685
0.206773275966
0.149010707191
0.103035025602
0.0707461861641
0.053833698552
0.052173921992
0.082991736078
0.109688027204
0.110353859992
0.0824091956456
0.0535062249455
0.0351603840531
0.0150566121375
0.0195205583676
0.0331728979997
0.0438201495398
0.055372535366
0.0745467592224
0.0837783127997
0.0729804643913
0.0506756277814
0.0422767107016
0.0459527487557
0.108266277151
0.157014560947
1.02211997884
0.855255433243
0.884314725693
0.891160832371
0.902577416637
0.919523797048
0.950685791581
0.991571122628
1.01402436316
0.976829204942
0.898329476417
0.817275063709
0.747850116095
0.693990533059
0.664871302288
0.654623509694
0.637807759994
0.597002233896
0.544635188523
0.47597295094
0.377344226727
0.309111145156
0.301410033037
0.284954264156
0.242832144143
0.23105477188
0.24860036641
0.253758819042
0.232998716142
0.233315806519
0.26522240653
0.290948582958
0.299702513293
0.32154632545
0.374857330119
0.44287058443
0.505175592357
0.554252932959
0.592542555404
0.627640879381
0.667926974877
0.718535314665
0.783602447788
0.882002212399
1.00619063218
1.12549145086
1.22910575958
1.31943703705
1.39890897115
1.46100689989
1.51138485699
1.55573147086
1.56260184028
1.48476686219
1.34422454857
1.21266483415
1.12043213054
1.05173141748
0.990018278026
0.937670887889
0.912157479946
0.924630046114
0.958614804624
0.992418700746
1.0173559164
1.02038188401
0.99677154244
0.966935762257
0.981612251721
1.07760462495
1.22459999634
1.3024561263
1.25098975027
1.15911743041
1.1377912693
1.19668665133
1.22673098141
1.18249622736
1.0767480076
0.916039884466
0.741386528716
0.600761665059
0.498870523901
0.431519673238
0.390029494095
0.377098542768
0.38719418821
0.403454674032
0.45721397937
0.555096921806
0.683724176665
0.82127168356
0.988041927761
1.23011817916
1.47130240826
1.51937608707
1.36231240214
1.15894928748
1.0224403695
0.9621817222
0.946321091124
0.935907394443
0.93484862925
0.951215523976
0.990971057688
1.03293763573
1.06962892695
1.10825730758
1.15482859996
1.19807348052
1.22355798354
1.21604807269
1.13030790886
0.967965743372
0.775194406928
0.619387411636
0.522112779606
0.471399793404
0.447410030584
0.423494283258
0.411376190004
0.40957370972
0.46848069973
0.630545711329
0.85240893852
0.979407268823
0.898353711801
0.807354516112
0.814530595617
0.827774556167
0.79949683418
0.744988786257
0.728096269255
0.773488281148
0.873972495359
1.00390277722
1.07257047345
0.952458452339
0.742971043571
0.548961676436
0.395869794845
0.289827892907
0.200998402276
0.124572388657
0.166204213317
0.276812404987
0.392356521084
0.398889446075
0.330194912557
0.271683261113
0.267446359715
0.289312648911
0.31261428145
0.340428727546
0.390886712095
0.473664813787
0.466087952231
0.357806562981
0.215854852474
0.122906704818
0.0968797313005
0.108474430874
0.143034087208
0.192753330384
0.246892455354
0.234274472806
0.16130084389
0.115971774537
0.0951016451259
0.0729390086695
0.0706542850511
0.0901512340016
0.109504270245
0.106484246108
0.0790850254152
0.0504482517503
0.0326211056215
0.0155010845801
0.0102581354541
0.0233662999515
0.0184485197035
0.0322269545763
0.0683003730919
0.0837757712901
0.0774477360178
0.0570269410803
0.0502398989803
0.054146465338
0.116196244135
0.170286622113
1.01818864671
0.851728614616
0.865111923906
0.84855604003
0.843247059398
0.858176540689
0.908080444438
0.988971945991
1.05750954474
1.05581944147
0.988120820079
0.904346413669
0.836105139277
0.783230409922
0.750922032116
0.72876411407
0.69684034766
0.645788031175
0.583336839724
0.48537414489
0.357174268385
0.281126609325
0.264953535908
0.228701187743
0.170059411277
0.145779242596
0.149915180758
0.167632421088
0.195358856372
0.239968929827
0.281359100724
0.293075376734
0.282469013374
0.28735038232
0.334667065683
0.412445982876
0.49639044528
0.576116794868
0.65094282291
0.721112322417
0.788386217397
0.841726846533
0.873268502493
0.902695392658
0.965596556926
1.08345181718
1.22905800797
1.34919206899
1.43115888279
1.4878630419
1.53737212664
1.59557743834
1.63835914318
1.58236520464
1.42565237215
1.24426425169
1.09240880358
1.0018477947
0.957386373642
0.919232121452
0.894245899416
0.900650966647
0.909919480494
0.908302721588
0.904323146347
0.910164672639
0.921063613133
0.911542042571
0.908721140986
0.963752875387
1.09624735808
1.2516302668
1.31743014456
1.27008484385
1.22681108087
1.2563756462
1.26601016079
1.20589641331
1.11057261303
0.973054867165
0.791049228368
0.608709628117
0.473783558404
0.405086949858
0.374029357766
0.371979332944
0.382482389731
0.398217598508