/*--------------------------------*- C++ -*----------------------------------*\
  =========                 |
  \\      /  F ield         | OpenFOAM: The Open Source CFD Toolbox
   \\    /   O peration     | Website:  https://openfoam.org
    \\  /    A nd           | Version:  8
     \\/     M anipulation  |
\*---------------------------------------------------------------------------*/
FoamFile
{
    version     2.0;
    format      ascii;
    class       volScalarField;
    location    "0.000332";
    object      mixAlpha;
}
// * * * * * * * * * * * * * * * * * * * * * * * * * * * * * * * * * * * * * //

dimensions      [1 -1 -1 0 0 0 0];

internalField   nonuniform List<scalar> 
22800
(
1.42011885407e-10
1.42009745853e-10
1.42007623875e-10
1.42005224807e-10
1.42002352589e-10
1.41998780555e-10
1.41994197922e-10
1.41988703751e-10
1.41982434618e-10
1.41975899497e-10
1.41969505516e-10
1.41963129287e-10
1.41956967331e-10
1.41950924317e-10
1.41945011647e-10
1.41939221948e-10
1.4193348544e-10
1.4192777807e-10
1.4192237325e-10
1.41917461564e-10
1.4191315137e-10
1.41909432445e-10
1.41906209462e-10
1.41903223941e-10
1.4190043946e-10
1.41897920684e-10
1.41895901753e-10
1.41894587897e-10
1.41893622869e-10
1.41892625655e-10
1.41891460854e-10
1.41890325904e-10
1.41889533916e-10
1.41889110733e-10
1.41888938846e-10
1.41889093499e-10
1.41889753219e-10
1.41891065394e-10
1.41893131721e-10
1.41895962979e-10
1.41899406144e-10
1.41903391102e-10
1.4190790289e-10
1.41913055846e-10
1.41919341845e-10
1.41926986869e-10
1.41935548535e-10
1.41944862696e-10
1.41955111146e-10
1.41966349417e-10
1.41979125416e-10
1.41993478685e-10
1.42009178115e-10
1.42025133445e-10
1.42040043057e-10
1.42053663396e-10
1.42065638199e-10
1.42075637482e-10
1.4208333733e-10
1.42088789334e-10
1.4209213493e-10
1.42093560275e-10
1.42093940302e-10
1.42093835379e-10
1.42093109028e-10
1.42091568191e-10
1.42088769705e-10
1.42084252186e-10
1.42077589023e-10
1.42068485057e-10
1.42056459073e-10
1.4204136158e-10
1.42023116685e-10
1.42003108927e-10
1.41983925623e-10
1.41965248774e-10
1.41946931775e-10
1.41927001657e-10
1.41905694878e-10
1.41884781927e-10
1.41865301751e-10
1.41848095325e-10
1.41833879807e-10
1.41822694311e-10
1.41815112424e-10
1.41811716021e-10
1.41812010771e-10
1.41814569391e-10
1.41818551632e-10
1.41824037017e-10
1.41832559086e-10
1.41845165702e-10
1.41864655788e-10
1.4189078373e-10
1.41926842706e-10
1.4196891441e-10
1.4200616865e-10
1.42032819699e-10
1.42050101973e-10
1.42060359348e-10
1.42065658397e-10
1.42067953832e-10
1.42068537349e-10
1.42067306172e-10
1.42063911144e-10
1.4205769488e-10
1.42049047328e-10
1.42037343145e-10
1.42020765057e-10
1.41999026044e-10
1.41970983247e-10
1.41939171051e-10
1.41903671576e-10
1.41870996187e-10
1.41845375692e-10
1.41828362565e-10
1.41819442126e-10
1.41816387671e-10
1.41817211387e-10
1.41820731432e-10
1.41826309404e-10
1.41835460658e-10
1.41850782743e-10
1.41874830276e-10
1.41908494337e-10
1.4195468413e-10
1.42001397097e-10
1.42035782727e-10
1.42057450109e-10
1.42068071937e-10
1.42071468125e-10
1.42070175559e-10
1.42064119436e-10
1.42052071787e-10
1.4203237173e-10
1.42002076772e-10
1.41964245588e-10
1.41923329948e-10
1.41895398169e-10
1.4187983916e-10
1.41873623542e-10
1.41873079103e-10
1.41876240386e-10
1.41883957651e-10
1.41897734059e-10
1.4192054035e-10
1.41952636332e-10
1.41991080377e-10
1.4202162286e-10
1.42039958476e-10
1.42048710099e-10
1.42051341294e-10
1.42049339011e-10
1.42041546818e-10
1.42024937267e-10
1.42000411918e-10
1.41968944246e-10
1.41944188252e-10
1.4192968708e-10
1.41923214582e-10
1.41922034492e-10
1.41924551579e-10
1.41933326955e-10
1.41951464006e-10
1.41976115621e-10
1.42003140744e-10
1.42019955084e-10
1.42027654144e-10
1.42029706137e-10
1.42028033512e-10
1.4202277017e-10
1.42012668244e-10
1.41997856086e-10
1.41985262862e-10
1.41978007067e-10
1.41975245199e-10
1.41975291826e-10
1.4197757121e-10
1.41982423968e-10
1.41988683541e-10
1.41994700287e-10
1.41997927731e-10
1.41997997741e-10
1.41996520526e-10
1.41994236469e-10
1.41992237001e-10
1.41990570214e-10
1.41990642849e-10
1.41991397524e-10
1.41994981327e-10
1.42010134108e-10
1.42004945877e-10
1.42000672252e-10
1.41996269927e-10
1.41991706843e-10
1.41986582933e-10
1.41980556659e-10
1.41973507347e-10
1.41965887289e-10
1.41958335128e-10
1.41951190221e-10
1.41944363091e-10
1.41937622412e-10
1.41931098459e-10
1.41924764567e-10
1.41918554917e-10
1.41912405401e-10
1.4190638128e-10
1.41900629178e-10
1.41895232112e-10
1.41890205526e-10
1.41885639822e-10
1.41881512619e-10
1.41877637917e-10
1.4187391861e-10
1.41870533839e-10
1.41867764965e-10
1.41865664784e-10
1.41863984521e-10
1.41862387843e-10
1.41860640795e-10
1.41858659043e-10
1.41856830935e-10
1.41855284881e-10
1.41854158893e-10
1.41853668526e-10
1.41853833868e-10
1.41854669028e-10
1.4185655034e-10
1.41859637622e-10
1.41863830093e-10
1.41869120897e-10
1.41875425934e-10
1.41882784536e-10
1.41891223127e-10
1.41900260506e-10
1.41909861026e-10
1.41919977833e-10
1.41931089086e-10
1.41942989321e-10
1.41956317796e-10
1.41971135242e-10
1.41987523116e-10
1.42004142957e-10
1.42019388769e-10
1.42032976197e-10
1.42044915692e-10
1.42055295627e-10
1.42063764758e-10
1.42070009829e-10
1.4207396116e-10
1.42075764477e-10
1.42076284002e-10
1.42076200637e-10
1.4207536686e-10
1.42073478999e-10
1.42070223891e-10
1.42065298143e-10
1.42058449311e-10
1.42049341386e-10
1.42037432696e-10
1.42022475466e-10
1.42004906406e-10
1.41985996501e-10
1.41966119298e-10
1.41946336082e-10
1.41926794341e-10
1.41907577013e-10
1.41887698271e-10
1.41867639851e-10
1.41848559263e-10
1.41831022385e-10
1.41815257465e-10
1.41801882021e-10
1.41792186908e-10
1.41786925135e-10
1.41785915984e-10
1.41787606048e-10
1.41791479764e-10
1.41797438065e-10
1.41806478694e-10
1.4181965311e-10
1.41840328176e-10
1.41867925065e-10
1.41905968578e-10
1.41949963319e-10
1.41988553826e-10
1.42016023045e-10
1.42033473758e-10
1.42043386017e-10
1.42048054761e-10
1.4204979225e-10
1.42050188515e-10
1.42049080939e-10
1.42046082074e-10
1.42040803246e-10
1.42033146476e-10
1.42022300873e-10
1.42007903453e-10
1.41989245997e-10
1.41963622701e-10
1.41932482248e-10
1.41895535042e-10
1.41859954581e-10
1.41831121557e-10
1.41811161012e-10
1.41801051673e-10
1.41798900674e-10
1.41800842996e-10
1.41804970214e-10
1.41810804368e-10
1.41820051623e-10
1.41834291727e-10
1.41858106488e-10
1.41892571628e-10
1.41940736112e-10
1.41989573323e-10
1.42025545469e-10
1.4204855203e-10
1.4206024224e-10
1.4206453288e-10
1.42063446488e-10
1.42057675303e-10
1.42046372436e-10
1.42027689024e-10
1.41998357925e-10
1.41960875784e-10
1.41920204002e-10
1.41892665485e-10
1.4187754427e-10
1.41871528458e-10
1.41870578561e-10
1.41873475794e-10
1.41881669905e-10
1.4189571637e-10
1.41919189866e-10
1.41951744464e-10
1.41991569901e-10
1.42022584707e-10
1.42041287245e-10
1.42050954766e-10
1.42054913142e-10
1.4205300265e-10
1.42044839943e-10
1.4202686047e-10
1.42001495681e-10
1.41968764983e-10
1.41943862594e-10
1.41929767619e-10
1.41923897896e-10
1.41923322074e-10
1.41926151122e-10
1.41935358012e-10
1.41953558776e-10
1.41978172695e-10
1.42005261709e-10
1.4202174543e-10
1.42028665095e-10
1.42030169541e-10
1.42028644557e-10
1.42023325175e-10
1.42013420876e-10
1.41998152976e-10
1.41985345349e-10
1.41977486866e-10
1.41974394207e-10
1.41974322027e-10
1.41976851955e-10
1.41982211724e-10
1.41989083714e-10
1.41995487951e-10
1.4199841186e-10
1.41997794455e-10
1.41996113961e-10
1.41993804351e-10
1.41992386648e-10
1.41991351377e-10
1.41991783577e-10
1.4199239446e-10
1.41996179993e-10
1.42007821529e-10
1.41998345419e-10
1.41990148569e-10
1.41981696494e-10
1.41973116118e-10
1.41964039958e-10
1.41954107545e-10
1.41943527176e-10
1.419330322e-10
1.41922973124e-10
1.41913298745e-10
1.41903920295e-10
1.41894857925e-10
1.4188616231e-10
1.41877755451e-10
1.41869590947e-10
1.41861626646e-10
1.41853881156e-10
1.41846422124e-10
1.41839257871e-10
1.41832419216e-10
1.41825967927e-10
1.41820094378e-10
1.41814734681e-10
1.41809669012e-10
1.41805077315e-10
1.41801232607e-10
1.41798122273e-10
1.41795428688e-10
1.41792953821e-10
1.41790586285e-10
1.41788031395e-10
1.41785461869e-10
1.41783301965e-10
1.4178170481e-10
1.41780941112e-10
1.41781036213e-10
1.41781912335e-10
1.41784084137e-10
1.41787802921e-10
1.41793052447e-10
1.41799966514e-10
1.41808467529e-10
1.41818448613e-10
1.41829685732e-10
1.41841589527e-10
1.41853882704e-10
1.41866732747e-10
1.41880711261e-10
1.41895678143e-10
1.41912459228e-10
1.41931194167e-10
1.41951434444e-10
1.41971255558e-10
1.41989067479e-10
1.42004298521e-10
1.42016938953e-10
1.42027518567e-10
1.42036355251e-10
1.4204333093e-10
1.42048152291e-10
1.42050864684e-10
1.42051942219e-10
1.42052053611e-10
1.42051004642e-10
1.42048072765e-10
1.42042937419e-10
1.42035590338e-10
1.42026255769e-10
1.42015082099e-10
1.42001872798e-10
1.41986309518e-10
1.41967965642e-10
1.41947432007e-10
1.41925384525e-10
1.41903916907e-10
1.41882565866e-10
1.41861584893e-10
1.41839687786e-10
1.4181751968e-10
1.41796436134e-10
1.41777270843e-10
1.41760361435e-10
1.41745886996e-10
1.41734063077e-10
1.41725685693e-10
1.41722121968e-10
1.41722675281e-10
1.41726201242e-10
1.41733376684e-10
1.41744445644e-10
1.41760253198e-10
1.41783927472e-10
1.4181508228e-10
1.41856853183e-10
1.41904285286e-10
1.41945353533e-10
1.41974805222e-10
1.41993981244e-10
1.42004986423e-10
1.42010204675e-10
1.42012730957e-10
1.42014366853e-10
1.42014513799e-10
1.42012891126e-10
1.42008812149e-10
1.42001596325e-10
1.41990421041e-10
1.41975274207e-10
1.41955350375e-10
1.41928393779e-10
1.41893859825e-10
1.41854080379e-10
1.41815882519e-10
1.41785765944e-10
1.41766466736e-10
1.4175756943e-10
1.4175594942e-10
1.41757876376e-10
1.41762172191e-10
1.41768514596e-10
1.41777664736e-10
1.41792067998e-10
1.41817489227e-10
1.41855943495e-10
1.41909293322e-10
1.41962723084e-10
1.42002340485e-10
1.42028111912e-10
1.42041411474e-10
1.42046502204e-10
1.42045568545e-10
1.42040197547e-10
1.42029795693e-10
1.42012439158e-10
1.41984604459e-10
1.41947363695e-10
1.41906614729e-10
1.41878650908e-10
1.41862907382e-10
1.41856027597e-10
1.41854073563e-10
1.41856857244e-10
1.41865732118e-10
1.41881233214e-10
1.4190716795e-10
1.41942678673e-10
1.41985418649e-10
1.42019501312e-10
1.4204071927e-10
1.4205277127e-10
1.42057516575e-10
1.42055364415e-10
1.42047105155e-10
1.42028586005e-10
1.4200308492e-10
1.41969360589e-10
1.41943319533e-10
1.41928552355e-10
1.41922492247e-10
1.41921864304e-10
1.41924898996e-10
1.41934261382e-10
1.41952787681e-10
1.41978137427e-10
1.42006138117e-10
1.4202327388e-10
1.42030212281e-10
1.42031627913e-10
1.42030001052e-10
1.42024261782e-10
1.42014021877e-10
1.41998080897e-10
1.41984682928e-10
1.41976335402e-10
1.41972668901e-10
1.41972135177e-10
1.4197498427e-10
1.4198130137e-10
1.41989516967e-10
1.41997180186e-10
1.42000309847e-10
1.41998932682e-10
1.41996301229e-10
1.41993183594e-10
1.41991316754e-10
1.41989586873e-10
1.41990100556e-10
1.41990327842e-10
1.41996082108e-10
1.42007569323e-10
1.41995740278e-10
1.4198387958e-10
1.41970996029e-10
1.4195728642e-10
1.41942598909e-10
1.41927261325e-10
1.41912343987e-10
1.41898360227e-10
1.41885207338e-10
1.41872601876e-10
1.41860429278e-10
1.4184850684e-10
1.41836608732e-10
1.41824733878e-10
1.41812987599e-10
1.41801571371e-10
1.41790404695e-10
1.41779618658e-10
1.41769417821e-10
1.41759535749e-10
1.41750124152e-10
1.41741830673e-10
1.41734536976e-10
1.41727807243e-10
1.41721677293e-10
1.41716476179e-10
1.41712178119e-10
1.41708363409e-10
1.41705093376e-10
1.41702172016e-10
1.41699060599e-10
1.41696263543e-10
1.41694148188e-10
1.41692831014e-10
1.41692422308e-10
1.4169276775e-10
1.41694002784e-10
1.41696641112e-10
1.41701148277e-10
1.41707759556e-10
1.41716841911e-10
1.41728449121e-10
1.41742367073e-10
1.41757980828e-10
1.41774454978e-10
1.41791399341e-10
1.41809337041e-10
1.41828407451e-10
1.4184878734e-10
1.41871557668e-10
1.41896737976e-10
1.41923113257e-10
1.41947863535e-10
1.41969865166e-10
1.41988369148e-10
1.4200284538e-10
1.42013565755e-10
1.42021636494e-10
1.42027894487e-10
1.42032672639e-10
1.42036475443e-10
1.42038725192e-10
1.42039217754e-10
1.42038040213e-10
1.42034008785e-10
1.42026531281e-10
1.42015596587e-10
1.42001872385e-10
1.41986094483e-10
1.41968748585e-10
1.4195002697e-10
1.41929038388e-10
1.41905917024e-10
1.4188079391e-10
1.41854728932e-10
1.4182856468e-10
1.41802018025e-10
1.41775046407e-10
1.41748649487e-10
1.41723889863e-10
1.41701663692e-10
1.41682799054e-10
1.4166758962e-10
1.41654974216e-10
1.41644417632e-10
1.41638692634e-10
1.4163767394e-10
1.41640835677e-10
1.41649276384e-10
1.41663290246e-10
1.41682945434e-10
1.41710999341e-10
1.41747620867e-10
1.4179633589e-10
1.41851351311e-10
1.41898569699e-10
1.41932912013e-10
1.41956158465e-10
1.41970225771e-10
1.41977115338e-10
1.41980336967e-10
1.41982058302e-10
1.41981867797e-10
1.41980105674e-10
1.41975570232e-10
1.41967128211e-10
1.41953710563e-10
1.41934562135e-10
1.41909551153e-10
1.41877375939e-10
1.41839098263e-10
1.41797130007e-10
1.41757755426e-10
1.41726507196e-10
1.41705419159e-10
1.41694491215e-10
1.41691475191e-10
1.41693057364e-10
1.41697417761e-10
1.41704205102e-10
1.41714162659e-10
1.41730935277e-10
1.41760275979e-10
1.41805108807e-10
1.41866273542e-10
1.41927526279e-10
1.41972548094e-10
1.42002138632e-10
1.42018135162e-10
1.42024745176e-10
1.42024029484e-10
1.42018555113e-10
1.42007849221e-10
1.41990232125e-10
1.41962730903e-10
1.41924170722e-10
1.41882277057e-10
1.4185275387e-10
1.41835488402e-10
1.41827285746e-10
1.41824697459e-10
1.41827755137e-10
1.41837879374e-10
1.41855685214e-10
1.41885054816e-10
1.41924733252e-10
1.41972378682e-10
1.42011432658e-10
1.42037523932e-10
1.42052939236e-10
1.42058263954e-10
1.42056320192e-10
1.42048785471e-10
1.4203096947e-10
1.42005365872e-10
1.41970782045e-10
1.41943425136e-10
1.41927252411e-10
1.4191971859e-10
1.41918279546e-10
1.41921298936e-10
1.4193100599e-10
1.41950521782e-10
1.41977492352e-10
1.42006824074e-10
1.42024098833e-10
1.42031008054e-10
1.4203237387e-10
1.42029902953e-10
1.42023769589e-10
1.42013863574e-10
1.41997738143e-10
1.41982838997e-10
1.41973348792e-10
1.41968450103e-10
1.41966858488e-10
1.41969459383e-10
1.41976038986e-10
1.41985300354e-10
1.41994495688e-10
1.41998895626e-10
1.41998318355e-10
1.41996507828e-10
1.41993982933e-10
1.41991819816e-10
1.41989223424e-10
1.41989123703e-10
1.41988760321e-10
1.41996323091e-10
1.4200651222e-10
1.41992376325e-10
1.41977708037e-10
1.41961051706e-10
1.41942814283e-10
1.41923144828e-10
1.41903196305e-10
1.4188458629e-10
1.41867287543e-10
1.41851066852e-10
1.41835576236e-10
1.41820517344e-10
1.41805430559e-10
1.41790086058e-10
1.41774492564e-10
1.41758933399e-10
1.41743671285e-10
1.41728732889e-10
1.41714432638e-10
1.4170092422e-10
1.41687863167e-10
1.41675616948e-10
1.41664932883e-10
1.41655580252e-10
1.41646853142e-10
1.41638636598e-10
1.41631618243e-10
1.41625742349e-10
1.41620558912e-10
1.41616331595e-10
1.41612712533e-10
1.4160971994e-10
1.41607742241e-10
1.41606783714e-10
1.4160667356e-10
1.41607200674e-10
1.41608355739e-10
1.41610517933e-10
1.41614121295e-10
1.41619803832e-10
1.41627951918e-10
1.41638986166e-10
1.41653127564e-10
1.41670301552e-10
1.41689811597e-10
1.4171075479e-10
1.41732723243e-10
1.41756523467e-10
1.41781622845e-10
1.41808316454e-10
1.41837618852e-10
1.41869617932e-10
1.4190286182e-10
1.41933372954e-10
1.41959645861e-10
1.41981645219e-10
1.41998787697e-10
1.42011323367e-10
1.42019868004e-10
1.42025437347e-10
1.42029294937e-10
1.42032449729e-10
1.42034570778e-10
1.42034898925e-10
1.42033515652e-10
1.4202915107e-10
1.42020828329e-10
1.42008155204e-10
1.41991539975e-10
1.41971448334e-10
1.4194858228e-10
1.41923989909e-10
1.41898128399e-10
1.41871588361e-10
1.41843279275e-10
1.41812019013e-10
1.41778953121e-10
1.41744781432e-10
1.41710919041e-10
1.41678520566e-10
1.41648514137e-10
1.41621643137e-10
1.41599138311e-10
1.41582215552e-10
1.41569826197e-10
1.41560168461e-10
1.41553671722e-10
1.41551524245e-10
1.41553713667e-10
1.41562004759e-10
1.41578081191e-10
1.41602298889e-10
1.41636784702e-10
1.41681155892e-10
1.41739384241e-10
1.41804766322e-10
1.41860394596e-10
1.41901396643e-10
1.41930302325e-10
1.41948851685e-10
1.41958497332e-10
1.41962489558e-10
1.41963896959e-10
1.41962962901e-10
1.4195953068e-10
1.41952638758e-10
1.41941048645e-10
1.41923509883e-10
1.41899012243e-10
1.41867815909e-10
1.41829204988e-10
1.41786206824e-10
1.41739541996e-10
1.41696121509e-10
1.41661223896e-10
1.41636766267e-10
1.41622801997e-10
1.4161797544e-10
1.41619184139e-10
1.41623576422e-10
1.41630960676e-10
1.41642836581e-10
1.41663755158e-10
1.41699277164e-10
1.41753137821e-10
1.41824161519e-10
1.41894104288e-10
1.41945087394e-10
1.41978631322e-10
1.41998090487e-10
1.42007736424e-10
1.42008458054e-10
1.42004232628e-10
1.41993297134e-10
1.41973459549e-10
1.41941876323e-10
1.41898440421e-10
1.41851436561e-10
1.41818495757e-10
1.41798761462e-10
1.41789496847e-10
1.41786856107e-10
1.41791049282e-10
1.41803338547e-10
1.41824191935e-10
1.4185781362e-10
1.41902893235e-10
1.41957749306e-10
1.42003289187e-10
1.42034639527e-10
1.42052864449e-10
1.42058998695e-10
1.42057423298e-10
1.42050645763e-10
1.42033165856e-10
1.42006105722e-10
1.41968817728e-10
1.41938650357e-10
1.4192014904e-10
1.4191088115e-10
1.41908966008e-10
1.41912411882e-10
1.41922778206e-10
1.41943251831e-10
1.41972397127e-10
1.42004814428e-10
1.42024437405e-10
1.42032014596e-10
1.42033003141e-10
1.4203028101e-10
1.42023756537e-10
1.42013434846e-10
1.41996695389e-10
1.41979869493e-10
1.41968510946e-10
1.41961760192e-10
1.41959104743e-10
1.41961236089e-10
1.41967714808e-10
1.41977636684e-10
1.41988538917e-10
1.41995141476e-10
1.41996301854e-10
1.41995654284e-10
1.41993730719e-10
1.41991483968e-10
1.41988330696e-10
1.4198781196e-10
1.41987087607e-10
1.41996257783e-10
1.42005364116e-10
1.41988717576e-10
1.41971216708e-10
1.41951052041e-10
1.41928964325e-10
1.41905527813e-10
1.41882925938e-10
1.4186154869e-10
1.41841603433e-10
1.41822795487e-10
1.4180436522e-10
1.41786094401e-10
1.41767674588e-10
1.41748937981e-10
1.41729858166e-10
1.41710711035e-10
1.41691872459e-10
1.41673609033e-10
1.41656261974e-10
1.41639919421e-10
1.41624427683e-10
1.41610068152e-10
1.41597287932e-10
1.41585914262e-10
1.4157505878e-10
1.41564641957e-10
1.4155564092e-10
1.41547817401e-10
1.41540939641e-10
1.41535465974e-10
1.41531274796e-10
1.41528830477e-10
1.41527984012e-10
1.41528309724e-10
1.41529559449e-10
1.41531701124e-10
1.41534645537e-10
1.41538638222e-10
1.41544092344e-10
1.4155164643e-10
1.41561628426e-10
1.41574370911e-10
1.41589966378e-10
1.41608527447e-10
1.41629794523e-10
1.41653419717e-10
1.41679107368e-10
1.41707631829e-10
1.41738666628e-10
1.41771940109e-10
1.41807884613e-10
1.41846683386e-10
1.41887014524e-10
1.41924348248e-10
1.4195610845e-10
1.41981853666e-10
1.42002002339e-10
1.42017548426e-10
1.42028844404e-10
1.42036233238e-10
1.42040116141e-10
1.42041645418e-10
1.42041662973e-10
1.42040176503e-10
1.42036504697e-10
1.42030233856e-10
1.42021155931e-10
1.42008464599e-10
1.41991469945e-10
1.41969715614e-10
1.41943457462e-10
1.41913457605e-10
1.41880787871e-10
1.41847757182e-10
1.41813937706e-10
1.41777115169e-10
1.4173702319e-10
1.41695204469e-10
1.41654026891e-10
1.41615001249e-10
1.41579324533e-10
1.4154766013e-10
1.4152093021e-10
1.41500880254e-10
1.41487938391e-10
1.41480200708e-10
1.41475514225e-10
1.41473443269e-10
1.41475085008e-10
1.41482241097e-10
1.41498724187e-10
1.41526322247e-10
1.41567448752e-10
1.41620739422e-10
1.41689074116e-10
1.41765658892e-10
1.41831294297e-10
1.4187977407e-10
1.41914546261e-10
1.41937731145e-10
1.41950862535e-10
1.41956507642e-10
1.41957695961e-10
1.41956109369e-10
1.41951212191e-10
1.4194176708e-10
1.41926779415e-10
1.41904934804e-10
1.41875330166e-10
1.41838323958e-10
1.41793573574e-10
1.41744512141e-10
1.41690773875e-10
1.41640876051e-10
1.4160097543e-10
1.41572149607e-10
1.41554466372e-10
1.41547221933e-10
1.41547358586e-10
1.41551413754e-10
1.41559645982e-10
1.41574015574e-10
1.41599899902e-10
1.4164233959e-10
1.41706725849e-10
1.41788895831e-10
1.41868790167e-10
1.41925998985e-10
1.41963270432e-10
1.41985747147e-10
1.41998779119e-10
1.42001507436e-10
1.41999295078e-10
1.41989115126e-10
1.41966896341e-10
1.41928819342e-10
1.41877299646e-10
1.41821125346e-10
1.41781886169e-10
1.41758855263e-10
1.41748923958e-10
1.41747121314e-10
1.41752786674e-10
1.41768540877e-10
1.41794215922e-10
1.4183299954e-10
1.41883885648e-10
1.41946836025e-10
1.41998932991e-10
1.42034056523e-10
1.42054198578e-10
1.42061775447e-10
1.42061322153e-10
1.42055131846e-10
1.42036742653e-10
1.42006888181e-10
1.4196511738e-10
1.41930511288e-10
1.41909510417e-10
1.4189890886e-10
1.41896833003e-10
1.41900740429e-10
1.41911833969e-10
1.41933332912e-10
1.41965006948e-10
1.42001433702e-10
1.42024726169e-10
1.42033911828e-10
1.42035184116e-10
1.42032106835e-10
1.42025010452e-10
1.42013548803e-10
1.41994797377e-10
1.41975300297e-10
1.41961806348e-10
1.41953573032e-10
1.41950305312e-10
1.41952062054e-10
1.41958314153e-10
1.41968431606e-10
1.41980272976e-10
1.41988716529e-10
1.41992229719e-10
1.41993665643e-10
1.41992736576e-10
1.41990681507e-10
1.4198727981e-10
1.41986460977e-10
1.41985478271e-10
1.41995880777e-10
1.42003780144e-10
1.41983837237e-10
1.41963411935e-10
1.41940477747e-10
1.41916196807e-10
1.41890751695e-10
1.41866372965e-10
1.41842905932e-10
1.41820318119e-10
1.41798239691e-10
1.41776397103e-10
1.41754717392e-10
1.41733073138e-10
1.41711299737e-10
1.41689309511e-10
1.41667226841e-10
1.41645518484e-10
1.41624516053e-10
1.41604526051e-10
1.41585807663e-10
1.41568446313e-10
1.41552264322e-10
1.41537358176e-10
1.41524007417e-10
1.41511431198e-10
1.41499434808e-10
1.41488712169e-10
1.41479101589e-10
1.41470634505e-10
1.41463909015e-10
1.41459291318e-10
1.41456733047e-10
1.41455970744e-10
1.4145628523e-10
1.41457692245e-10
1.41460799258e-10
1.41465777607e-10
1.41472640916e-10
1.41481220386e-10
1.4149176787e-10
1.41504441183e-10
1.41519513921e-10
1.41537033587e-10
1.41557233611e-10
1.41580127217e-10
1.41605821404e-10
1.41633836898e-10
1.41664713442e-10
1.41699169598e-10
1.41736978513e-10
1.4177810071e-10
1.41822954896e-10
1.41870187386e-10
1.41915367624e-10
1.41954560349e-10
1.4198683296e-10
1.42011980443e-10
1.42031075132e-10
1.42045104944e-10
1.42054418203e-10
1.42059648134e-10
1.42061716054e-10
1.42061342625e-10
1.42058417411e-10
1.42052005355e-10
1.42042016554e-10
1.42029079055e-10
1.42013669731e-10
1.41995536859e-10
1.41973303143e-10
1.41945650481e-10
1.41912100414e-10
1.41873608457e-10
1.41832618094e-10
1.41790450752e-10
1.41746247197e-10
1.41698782957e-10
1.41649650515e-10
1.41601842896e-10
1.41556674417e-10
1.41515767322e-10
1.41480248644e-10
1.41450481811e-10
1.41427576511e-10
1.41412736191e-10
1.41405562498e-10
1.41402952772e-10
1.4140213617e-10
1.41403932996e-10
1.41410602956e-10
1.41427056012e-10
1.4145684679e-10
1.41503245213e-10
1.41564618261e-10
1.41642705313e-10
1.4173057778e-10
1.41806996159e-10
1.41863669869e-10
1.41904468002e-10
1.41931791212e-10
1.41947961103e-10
1.41955635045e-10
1.41957446644e-10
1.41955528329e-10
1.41949577562e-10
1.41937802499e-10
1.41919514053e-10
1.41893654648e-10
1.41859715857e-10
1.418180589e-10
1.41767982801e-10
1.41712273831e-10
1.41650587566e-10
1.41593323771e-10
1.41547474184e-10
1.41513686209e-10
1.41492007643e-10
1.41481727391e-10
1.41479810106e-10
1.41483346365e-10
1.41492526878e-10
1.41509506631e-10
1.41540309369e-10
1.4158949279e-10
1.41663759126e-10
1.41757523096e-10
1.41848990304e-10
1.419140378e-10
1.41956140673e-10
1.41981626211e-10
1.41996441103e-10
1.41999882248e-10
1.41998236853e-10
1.4198792107e-10
1.4196370304e-10
1.41920321665e-10
1.41861648099e-10
1.41796464272e-10
1.41750307919e-10
1.41723904525e-10
1.41713328941e-10
1.41711919859e-10
1.41718206437e-10
1.4173677374e-10
1.41766826802e-10
1.4181046453e-10
1.4186733536e-10
1.41938257012e-10
1.41997255796e-10
1.42036208232e-10
1.42058755077e-10
1.42068364777e-10
1.42068786093e-10
1.42062573924e-10
1.42042200075e-10
1.42008460018e-10
1.41961540609e-10
1.41921704306e-10
1.41897868871e-10
1.41885624385e-10
1.41882683333e-10
1.41886404647e-10
1.41898159924e-10
1.41921428669e-10
1.41956666307e-10
1.41997558785e-10
1.42025018538e-10
1.42037131496e-10
1.42039741007e-10
1.42036565461e-10
1.42028469722e-10
1.42014947442e-10
1.41992930166e-10
1.41969722241e-10
1.41953933156e-10
1.41944879947e-10
1.41941707251e-10
1.41943443543e-10
1.4194946519e-10
1.41959400312e-10
1.41971338732e-10
1.41980918054e-10
1.41986913124e-10
1.41990932686e-10
1.41990972108e-10
1.41989160449e-10
1.41985536276e-10
1.41984332676e-10
1.41983139636e-10
1.4199499997e-10
1.42001564802e-10
1.41977668401e-10
1.41954879398e-10
1.41930395653e-10
1.41905305707e-10
1.41879216161e-10
1.41853214658e-10
1.41827494068e-10
1.41801769406e-10
1.4177610025e-10
1.41750776753e-10
1.41725861128e-10
1.41701385264e-10
1.41677151817e-10
1.41652895753e-10
1.41628570624e-10
1.41604496435e-10
1.41580929274e-10
1.4155830229e-10
1.41537139726e-10
1.4151761493e-10
1.41499204202e-10
1.41482053728e-10
1.41466889657e-10
1.41453012598e-10
1.41440002154e-10
1.41428337461e-10
1.41417884196e-10
1.41408784721e-10
1.41401728094e-10
1.41397033647e-10
1.41394512025e-10
1.41393349451e-10
1.41392982639e-10
1.41393310748e-10
1.41395357313e-10
1.41400280089e-10
1.41408667842e-10
1.41420362044e-10
1.41434806938e-10
1.4145114517e-10
1.41469330539e-10
1.41489653348e-10
1.41512432409e-10
1.41537722604e-10
1.41565777705e-10
1.41596491959e-10
1.4162973978e-10
1.41665948387e-10
1.41705532965e-10
1.41749227148e-10
1.41797712004e-10
1.41850680199e-10
1.41904011085e-10
1.41951530385e-10
1.41991558079e-10
1.4202360413e-10
1.42047482456e-10
1.42063888395e-10
1.42073789741e-10
1.42079163582e-10
1.42081729428e-10
1.42082388965e-10
1.4208058373e-10
1.42074194776e-10
1.42062491965e-10
1.42046272565e-10
1.42026599365e-10
1.42004433699e-10
1.41979678354e-10
1.41950770564e-10
1.41915397246e-10
1.41872727594e-10
1.41824235031e-10
1.41772267471e-10
1.41718265245e-10
1.41661624999e-10
1.41605181219e-10
1.41551650876e-10
1.41501178761e-10
1.41455550978e-10
1.41416615405e-10
1.41384797763e-10
1.41360285507e-10
1.41343896064e-10
1.41336146968e-10
1.41334268072e-10
1.41334725723e-10
1.41337395615e-10
1.41344846547e-10
1.41362133698e-10
1.41393827605e-10
1.41444067875e-10
1.41512148421e-10
1.415990255e-10
1.41697739326e-10
1.417850013e-10
1.41850261756e-10
1.41897304572e-10
1.41928898304e-10
1.41948108616e-10
1.41957985923e-10
1.4196059414e-10
1.41958257884e-10
1.41951418484e-10
1.41937772179e-10
1.41916500866e-10
1.4188665394e-10
1.41848383945e-10
1.41802319835e-10
1.41747047579e-10
1.41683846638e-10
1.41613640179e-10
1.41548515703e-10
1.41495965103e-10
1.41456872467e-10
1.41431613876e-10
1.41419103486e-10
1.41415449499e-10
1.41418478557e-10
1.41428622599e-10
1.41448245234e-10
1.41483920879e-10
1.41539672558e-10
1.41623238596e-10
1.4172826951e-10
1.41830424178e-10
1.41904137096e-10
1.41952386481e-10
1.41981892721e-10
1.41998759248e-10
1.42002176984e-10
1.41999140365e-10
1.41986616085e-10
1.41959724446e-10
1.4191187635e-10
1.41847064372e-10
1.41774581568e-10
1.4172355857e-10
1.41694893673e-10
1.41683436896e-10
1.41681355302e-10
1.41687053276e-10
1.41706479117e-10
1.41739305945e-10
1.41787341833e-10
1.4185037482e-10
1.41929472566e-10
1.41996253323e-10
1.42040210374e-10
1.42065619223e-10
1.4207757319e-10
1.42078305356e-10
1.42070917182e-10
1.42047731029e-10
1.42009600527e-10
1.41957547802e-10
1.41912469838e-10
1.41885206856e-10
1.41870979589e-10
1.41867389682e-10
1.41870987674e-10
1.41883209116e-10
1.41907974621e-10
1.41946973751e-10
1.41992445606e-10
1.4202424449e-10
1.42039871873e-10
1.42044795972e-10
1.42042335798e-10
1.42033328711e-10
1.4201730116e-10
1.41992108166e-10
1.41964767928e-10
1.41946385656e-10
1.41936814042e-10
1.41934062971e-10
1.41935895208e-10
1.4194181822e-10
1.41951648816e-10
1.41963518758e-10
1.41973691817e-10
1.41981970861e-10
1.41988052281e-10
1.41988865406e-10
1.4198732238e-10
1.41983735646e-10
1.41982228861e-10
1.41980984547e-10
1.41994189815e-10
1.41999517655e-10
1.41972048505e-10
1.41947222819e-10
1.41921696684e-10
1.41896073519e-10
1.41869654354e-10
1.41842463714e-10
1.41814344605e-10
1.41785426597e-10
1.41756172193e-10
1.41727632168e-10
1.41700051355e-10
1.41673340643e-10
1.41647191791e-10
1.41621206862e-10
1.41595160006e-10
1.41569084491e-10
1.41543159216e-10
1.4151793249e-10
1.41494100653e-10
1.41471796884e-10
1.41450428468e-10
1.4143059317e-10
1.41413251754e-10
1.41397606047e-10
1.41383280051e-10
1.41371026927e-10
1.41360846847e-10
1.41352394962e-10
1.413455933e-10
1.41341003076e-10
1.41338509605e-10
1.41337388342e-10
1.4133713106e-10
1.41337595089e-10
1.4133918461e-10
1.41342847826e-10
1.41349855812e-10
1.41361296732e-10
1.4137731147e-10
1.41397083061e-10
1.41419775655e-10
1.41444496891e-10
1.41471139154e-10
1.4149996603e-10
1.41531150969e-10
1.41564802191e-10
1.41601064756e-10
1.41639715002e-10
1.41681310397e-10
1.41726622781e-10
1.4177667871e-10
1.41831888918e-10
1.41889205106e-10
1.41942950319e-10
1.41990009479e-10
1.42028702658e-10
1.42058192854e-10
1.42078617815e-10
1.42090988546e-10
1.4209688762e-10
1.4209822264e-10
1.42097252489e-10
1.42094737803e-10
1.42089169814e-10
1.420786312e-10
1.42062640164e-10
1.4204110774e-10
1.42015293249e-10
1.41986331096e-10
1.41954421819e-10
1.41917015723e-10
1.41871694206e-10
1.41817612616e-10
1.41756997955e-10
1.41692668142e-10
1.41626003423e-10
1.41561566675e-10
1.41502533347e-10
1.41447909857e-10
1.41398645607e-10
1.41356600257e-10
1.41322804593e-10
1.41297299888e-10
1.41280407402e-10
1.41272042489e-10
1.41269767818e-10
1.41270718119e-10
1.41274750107e-10
1.4128415799e-10
1.41303251948e-10
1.41337124286e-10
1.41390627056e-10
1.41464319463e-10
1.4155854485e-10
1.41666708526e-10
1.41763800181e-10
1.41837121627e-10
1.41890308565e-10
1.41926397026e-10
1.41948718488e-10
1.41960929928e-10
1.41964397841e-10
1.41961748263e-10
1.41953616308e-10
1.41937724863e-10
1.41913525999e-10
1.41880167019e-10
1.41838118387e-10
1.41787801019e-10
1.41727385178e-10
1.41656587777e-10
1.41577349737e-10
1.41503572803e-10
1.41443982225e-10
1.41399771415e-10