/*--------------------------------*- C++ -*----------------------------------*\
  =========                 |
  \\      /  F ield         | OpenFOAM: The Open Source CFD Toolbox
   \\    /   O peration     | Website:  https://openfoam.org
    \\  /    A nd           | Version:  8
     \\/     M anipulation  |
\*---------------------------------------------------------------------------*/
FoamFile
{
    version     2.0;
    format      ascii;
    class       volScalarField;
    location    "0.000332";
    object      mixMu;
}
// * * * * * * * * * * * * * * * * * * * * * * * * * * * * * * * * * * * * * //

dimensions      [1 -1 -1 0 0 0 0];

internalField   nonuniform List<scalar> 
22800
(
9.94754482496e-07
9.94738796185e-07
9.94723238619e-07
9.94705649377e-07
9.94684590938e-07
9.94658401299e-07
9.94624801589e-07
9.94584517763e-07
9.94538550833e-07
9.94490632479e-07
9.94443747906e-07
9.94396992395e-07
9.94351807051e-07
9.94307492909e-07
9.94264133631e-07
9.94221675218e-07
9.94179605977e-07
9.94137749543e-07
9.94098111119e-07
9.94062088601e-07
9.94030476913e-07
9.94003201286e-07
9.93979562736e-07
9.9395766556e-07
9.93937242695e-07
9.93918768466e-07
9.93903960274e-07
9.93894323522e-07
9.93887245285e-07
9.93879930949e-07
9.9387138737e-07
9.93863062706e-07
9.93857253587e-07
9.9385414959e-07
9.9385288882e-07
9.93854023186e-07
9.93858862144e-07
9.93868486745e-07
9.93883642836e-07
9.93904409352e-07
9.93929663752e-07
9.93958891604e-07
9.93991982999e-07
9.94029776321e-07
9.94075878741e-07
9.94131947001e-07
9.94194735986e-07
9.94263041318e-07
9.94338195529e-07
9.94420605048e-07
9.94514286467e-07
9.94619528119e-07
9.9473463375e-07
9.94851608755e-07
9.94960910945e-07
9.95060756228e-07
9.95148534596e-07
9.95221828915e-07
9.95278266634e-07
9.9531822732e-07
9.95342748606e-07
9.95353195469e-07
9.95355980807e-07
9.95355211792e-07
9.95349888124e-07
9.95338594759e-07
9.95318083453e-07
9.95284972168e-07
9.95236133312e-07
9.95169402222e-07
9.95081249601e-07
9.94970576737e-07
9.94836823452e-07
9.94690136256e-07
9.9454948337e-07
9.94412534259e-07
9.94278214578e-07
9.94132055451e-07
9.93975788559e-07
9.9382239807e-07
9.93679505886e-07
9.93553283686e-07
9.93448995997e-07
9.93366933251e-07
9.93311306566e-07
9.93286387373e-07
9.93288549951e-07
9.93307322393e-07
9.93336539498e-07
9.93376784236e-07
9.93439306663e-07
9.93531791873e-07
9.93674767407e-07
9.93866420786e-07
9.94130889727e-07
9.94439413496e-07
9.94712569367e-07
9.94907957348e-07
9.95034649337e-07
9.95109839743e-07
9.9514868265e-07
9.95165508326e-07
9.95169785519e-07
9.95160760951e-07
9.95135875076e-07
9.95090308473e-07
9.95026918239e-07
9.94941118372e-07
9.94819583013e-07
9.94660201201e-07
9.94454583629e-07
9.94221301964e-07
9.93960948736e-07
9.93721277134e-07
9.93533332379e-07
9.93408519002e-07
9.93343072857e-07
9.93320662891e-07
9.93326706365e-07
9.9335253218e-07
9.93393455868e-07
9.9346059369e-07
9.93572998469e-07
9.93749401394e-07
9.93996320883e-07
9.94335064182e-07
9.94677585441e-07
9.94929679135e-07
9.95088514224e-07
9.95166374038e-07
9.95191268038e-07
9.95181793589e-07
9.95137401889e-07
9.95049089036e-07
9.9490467329e-07
9.946825687e-07
9.94405178064e-07
9.94105127504e-07
9.93900266641e-07
9.93786142557e-07
9.93740549664e-07
9.93736556034e-07
9.937597449e-07
9.93816351996e-07
9.93917399637e-07
9.94084668625e-07
9.94320047422e-07
9.94601943528e-07
9.94825871821e-07
9.94960290902e-07
9.95024446161e-07
9.9504373418e-07
9.95029056426e-07
9.94971934669e-07
9.94850170537e-07
9.94670362265e-07
9.94439632277e-07
9.94258095368e-07
9.94151749847e-07
9.94104281416e-07
9.94095626674e-07
9.9411408687e-07
9.94178443703e-07
9.94311450552e-07
9.94492217214e-07
9.94690369535e-07
9.94813644842e-07
9.94870088394e-07
9.94885131747e-07
9.94872869586e-07
9.94834283062e-07
9.94760221892e-07
9.94651623174e-07
9.94559288394e-07
9.94506086232e-07
9.94485834818e-07
9.94486176711e-07
9.94502890319e-07
9.94538472747e-07
9.94584369577e-07
9.94628484938e-07
9.94652148469e-07
9.94652661774e-07
9.94641830918e-07
9.9462508422e-07
9.94610424012e-07
9.94598202952e-07
9.94598735522e-07
9.94604268883e-07
9.94630545528e-07
9.94741642716e-07
9.94703604337e-07
9.94672270992e-07
9.94639993531e-07
9.94606536846e-07
9.94568967492e-07
9.94524780939e-07
9.94473091904e-07
9.94417216364e-07
9.94361837135e-07
9.94309442834e-07
9.94259377528e-07
9.94209944952e-07
9.94162100558e-07
9.94115648905e-07
9.94070107358e-07
9.94025005798e-07
9.93980822921e-07
9.93938634193e-07
9.93899048658e-07
9.93862179747e-07
9.93828690719e-07
9.93798417563e-07
9.93769996087e-07
9.93742714069e-07
9.93717885632e-07
9.9369757478e-07
9.93682168924e-07
9.93669843291e-07
9.93658130728e-07
9.93645315028e-07
9.93630777533e-07
9.93617367028e-07
9.93606025516e-07
9.93597765478e-07
9.93594168233e-07
9.93595381149e-07
9.93601507744e-07
9.93615308651e-07
9.93637956088e-07
9.93668710477e-07
9.93707521132e-07
9.93753770703e-07
9.9380774716e-07
9.93869643689e-07
9.93935930142e-07
9.94006344638e-07
9.94080543106e-07
9.94162031821e-07
9.94249303123e-07
9.94347043982e-07
9.94455698155e-07
9.94575861123e-07
9.94697717532e-07
9.94809492999e-07
9.94909104633e-07
9.94996630868e-07
9.9507272113e-07
9.95134802051e-07
9.95180578788e-07
9.9520954174e-07
9.95222759769e-07
9.9522656779e-07
9.95225956738e-07
9.95219845305e-07
9.95206007554e-07
9.95182147862e-07
9.95146041948e-07
9.95095838671e-07
9.95029073837e-07
9.94941774857e-07
9.94832122512e-07
9.94703314946e-07
9.94564667626e-07
9.94418917635e-07
9.94273846172e-07
9.94130535031e-07
9.93989592893e-07
9.9384378933e-07
9.9369665701e-07
9.93556687132e-07
9.93428032753e-07
9.93312370718e-07
9.93214234179e-07
9.93143097443e-07
9.93104488737e-07
9.93097083919e-07
9.93109485036e-07
9.93137908759e-07
9.931816275e-07
9.93247960826e-07
9.93344620799e-07
9.93496303114e-07
9.93698749183e-07
9.93977795993e-07
9.94300445705e-07
9.94583418488e-07
9.94784817558e-07
9.94912752237e-07
9.94985417322e-07
9.95019642166e-07
9.95032378908e-07
9.95035283739e-07
9.95027164625e-07
9.95005181193e-07
9.94966483725e-07
9.9491035294e-07
9.94830842522e-07
9.94725288389e-07
9.945884936e-07
9.94400610533e-07
9.94172248881e-07
9.93901270564e-07
9.93640281197e-07
9.93428760323e-07
9.93282315279e-07
9.93208141702e-07
9.93192359173e-07
9.93206610579e-07
9.93236892891e-07
9.93279698582e-07
9.93347544589e-07
9.93452017996e-07
9.93626724146e-07
9.93879534673e-07
9.94232779336e-07
9.94590893612e-07
9.94854629383e-07
9.95023287431e-07
9.95108981314e-07
9.95140432487e-07
9.95132469084e-07
9.95090164963e-07
9.95007309731e-07
9.94870344105e-07
9.94655302616e-07
9.9438046768e-07
9.94082201841e-07
9.93880223095e-07
9.93769309167e-07
9.93725181532e-07
9.9371821369e-07
9.93739465883e-07
9.93799571266e-07
9.9390260055e-07
9.94074764114e-07
9.943135072e-07
9.9460553277e-07
9.94832923383e-07
9.949700318e-07
9.95040900739e-07
9.9506991737e-07
9.95055912679e-07
9.94996075584e-07
9.94864269864e-07
9.94678308242e-07
9.94438317793e-07
9.94255707194e-07
9.94152340503e-07
9.94109292807e-07
9.94105069758e-07
9.94125817746e-07
9.94193338766e-07
9.94326811829e-07
9.94507300692e-07
9.9470591993e-07
9.9482677042e-07
9.94877499786e-07
9.94888528987e-07
9.9487734922e-07
9.94838351943e-07
9.94765739827e-07
9.94653799944e-07
9.9455989321e-07
9.94502271869e-07
9.94479594871e-07
9.9447906561e-07
9.94497616389e-07
9.94536916497e-07
9.94587303721e-07
9.946342601e-07
9.94655698064e-07
9.94651171298e-07
9.94638849991e-07
9.94621915917e-07
9.94611521236e-07
9.94603930533e-07
9.94607099466e-07
9.9461157851e-07
9.9463933414e-07
9.94724687749e-07
9.94655210922e-07
9.94595111397e-07
9.94533138645e-07
9.94470223184e-07
9.94403670218e-07
9.94330836024e-07
9.94253247436e-07
9.94176282063e-07
9.94102510571e-07
9.94031557793e-07
9.93962772963e-07
9.93896304099e-07
9.93832523145e-07
9.93770858217e-07
9.93710969149e-07
9.93652546879e-07
9.9359572805e-07
9.9354100906e-07
9.93488451122e-07
9.93438280516e-07
9.9339095059e-07
9.93347858276e-07
9.93308535106e-07
9.93271368453e-07
9.93237678714e-07
9.93209469265e-07
9.9318664778e-07
9.93166883898e-07
9.93148724668e-07
9.93131352812e-07
9.93112606078e-07
9.93093751764e-07
9.93077902978e-07
9.93066183415e-07
9.93060579548e-07
9.9306127738e-07
9.9306770619e-07
9.93083642356e-07
9.93110929615e-07
9.93149448336e-07
9.93200179581e-07
9.93262553104e-07
9.93335783665e-07
9.93418226429e-07
9.93505556625e-07
9.93595739403e-07
9.93690002971e-07
9.93792539524e-07
9.93902320166e-07
9.94025400585e-07
9.94162802461e-07
9.94311233766e-07
9.94456580393e-07
9.9458718468e-07
9.94698858086e-07
9.94791532467e-07
9.9486909446e-07
9.94933876246e-07
9.94985013495e-07
9.95020357119e-07
9.950402404e-07
9.95048139241e-07
9.95048955799e-07
9.95041266355e-07
9.95019774144e-07
9.94982128784e-07
9.94928268745e-07
9.94859836707e-07
9.94777919062e-07
9.94681073201e-07
9.94566962748e-07
9.9443245644e-07
9.94281882925e-07
9.94120195611e-07
9.93962748116e-07
9.93806143201e-07
9.93652240597e-07
9.93491605078e-07
9.93328968259e-07
9.93174275946e-07
9.93033647592e-07
9.92909563838e-07
9.92803342076e-07
9.92716567118e-07
9.92655083745e-07
9.92628928248e-07
9.92632989237e-07
9.92658867522e-07
9.92711529607e-07
9.92792764294e-07
9.92908769555e-07
9.93082492794e-07
9.93311085406e-07
9.93617530235e-07
9.93965449981e-07
9.94266640803e-07
9.94482608665e-07
9.94623212898e-07
9.94703901605e-07
9.94742160089e-07
9.94760681678e-07
9.9477267525e-07
9.94773752587e-07
9.9476185596e-07
9.94731950621e-07
9.94679046148e-07
9.94597109201e-07
9.94486047518e-07
9.94339949816e-07
9.9414226504e-07
9.93888983303e-07
9.93597189516e-07
9.9331695666e-07
9.93095982973e-07
9.92954366344e-07
9.92889074945e-07
9.92877186541e-07
9.9289132745e-07
9.92922851812e-07
9.92969393925e-07
9.93036537946e-07
9.93142224937e-07
9.93328744833e-07
9.9361085697e-07
9.94002180918e-07
9.94394013755e-07
9.94684502194e-07
9.94873444343e-07
9.94970942493e-07
9.95008261006e-07
9.95001416706e-07
9.94962043483e-07
9.94885788285e-07
9.94758542339e-07
9.94554460799e-07
9.94281381975e-07
9.93982535126e-07
9.93777426558e-07
9.93661941858e-07
9.93611473928e-07
9.93597139514e-07
9.9361756002e-07
9.93682662852e-07
9.93796368103e-07
9.9398659267e-07
9.9424702501e-07
9.9456043067e-07
9.94810318088e-07
9.94965868111e-07
9.9505421656e-07
9.95089001442e-07
9.95073225367e-07
9.95012681e-07
9.94876919969e-07
9.94689960243e-07
9.94442685197e-07
9.94251724704e-07
9.94143428005e-07
9.94098983837e-07
9.94094378519e-07
9.94116634792e-07
9.94185296479e-07
9.94321157282e-07
9.94507042088e-07
9.94712345508e-07
9.94837975888e-07
9.9488884232e-07
9.94899220368e-07
9.94887293787e-07
9.94845218416e-07
9.94770146066e-07
9.9465327147e-07
9.94555036161e-07
9.9449382876e-07
9.94466943912e-07
9.9446303032e-07
9.94483921544e-07
9.9453024145e-07
9.94590480399e-07
9.94646667515e-07
9.94669613891e-07
9.94659516682e-07
9.94640223038e-07
9.94617364491e-07
9.94603676676e-07
9.94590992962e-07
9.94594759362e-07
9.94596425848e-07
9.94638616451e-07
9.94722838658e-07
9.94636110154e-07
9.94549145769e-07
9.94454677357e-07
9.94354146941e-07
9.94246440071e-07
9.94133959819e-07
9.94024555377e-07
9.93921992354e-07
9.93825518453e-07
9.93733055417e-07
9.93643763416e-07
9.93556302554e-07
9.93469016329e-07
9.93381896854e-07
9.932957169e-07
9.93211954862e-07
9.93130020387e-07
9.93050875592e-07
9.92976021915e-07
9.92903504632e-07
9.92834437351e-07
9.92773573416e-07
9.92720045104e-07
9.92670654424e-07
9.92625664586e-07
9.92587490999e-07
9.92555944815e-07
9.92527945832e-07
9.9250394431e-07
9.92482501756e-07
9.92459663935e-07
9.92439133303e-07
9.92423606274e-07
9.92413937956e-07
9.92410937966e-07
9.92413473582e-07
9.92422538988e-07
9.92441904708e-07
9.92474987536e-07
9.9252351367e-07
9.92590175314e-07
9.92675365336e-07
9.92777509991e-07
9.92892093967e-07
9.93012984897e-07
9.93137318653e-07
9.93268932762e-07
9.93408848313e-07
9.93558360299e-07
9.93725395801e-07
9.93910093707e-07
9.94103538302e-07
9.94285047446e-07
9.94446385104e-07
9.94582064395e-07
9.94688203982e-07
9.9476680201e-07
9.94825971778e-07
9.94871850375e-07
9.94906879253e-07
9.9493475736e-07
9.94951249938e-07
9.9495486082e-07
9.94946228468e-07
9.94916674496e-07
9.94861856533e-07
9.94781691002e-07
9.94681070175e-07
9.94565386058e-07
9.94438197548e-07
9.94300912468e-07
9.94146992475e-07
9.93977417871e-07
9.93793145764e-07
9.93601947182e-07
9.93410001825e-07
9.93215232076e-07
9.93017324797e-07
9.92823615266e-07
9.92641903528e-07
9.92478770672e-07
9.92340299815e-07
9.92228651955e-07
9.92136041302e-07
9.92058541268e-07
9.92016510531e-07
9.92009031583e-07
9.92032244034e-07
9.9209421165e-07
9.92197090405e-07
9.92341374316e-07
9.92547292931e-07
9.92816066517e-07
9.93173540412e-07
9.9357716943e-07
9.9392352875e-07
9.94175400649e-07
9.94345875597e-07
9.94449029307e-07
9.94499547647e-07
9.94523170073e-07
9.94535791552e-07
9.94534394704e-07
9.94521474136e-07
9.94488218136e-07
9.94426315765e-07
9.94327924908e-07
9.94187502093e-07
9.94004071929e-07
9.93768074425e-07
9.93487280198e-07
9.93179367162e-07
9.92890439866e-07
9.92661113012e-07
9.9250633552e-07
9.92426124154e-07
9.92403985899e-07
9.92415599416e-07
9.92447605391e-07
9.92497424478e-07
9.92570510675e-07
9.9269361176e-07
9.92908936734e-07
9.93237909769e-07
9.93686634474e-07
9.94135902949e-07
9.94466058085e-07
9.94683022244e-07
9.94800302349e-07
9.94848762282e-07
9.94843515394e-07
9.94803381164e-07
9.94724890776e-07
9.94595724039e-07
9.94394071093e-07
9.94111293691e-07
9.9380402477e-07
9.9358745845e-07
9.93460797224e-07
9.93400618872e-07
9.93381629659e-07
9.93404062585e-07
9.93478338119e-07
9.93608962277e-07
9.9382439971e-07
9.9411541924e-07
9.94464815847e-07
9.94751163138e-07
9.9494244369e-07
9.95055447826e-07
9.95094479956e-07
9.95080231557e-07
9.95024998684e-07
9.94894393306e-07
9.94706683628e-07
9.94453108286e-07
9.94252499136e-07
9.94133894443e-07
9.94078641811e-07
9.9406808776e-07
9.94090232106e-07
9.94161422414e-07
9.94304541038e-07
9.94502312097e-07
9.94717374738e-07
9.94844023805e-07
9.94894676168e-07
9.94904688981e-07
9.94886574619e-07
9.94841610045e-07
9.94768985469e-07
9.94650758422e-07
9.94541515879e-07
9.94471929283e-07
9.94436008868e-07
9.9442433795e-07
9.94443409628e-07
9.94491655289e-07
9.94559563299e-07
9.94626984818e-07
9.94659244993e-07
9.94655012495e-07
9.94641737818e-07
9.94623225282e-07
9.94607365174e-07
9.94588328096e-07
9.94587596923e-07
9.94584932541e-07
9.94640383328e-07
9.9471508832e-07
9.94611445541e-07
9.94503893603e-07
9.943817577e-07
9.94248019497e-07
9.94103769846e-07
9.93957462864e-07
9.93820963073e-07
9.93694072661e-07
9.93575082669e-07
9.93461441603e-07
9.93350961469e-07
9.93240270519e-07
9.93127682363e-07
9.93013260702e-07
9.92899084347e-07
9.92787081408e-07
9.92677447973e-07
9.92572492219e-07
9.92473342961e-07
9.92377472546e-07
9.92287578928e-07
9.92209149003e-07
9.92140490354e-07
9.92076421572e-07
9.92016099134e-07
9.91964571843e-07
9.91921431231e-07
9.9188337383e-07
9.91852335828e-07
9.91825763397e-07
9.9180379046e-07
9.91789269184e-07
9.91782231152e-07
9.91781422335e-07
9.91785292704e-07
9.91793773813e-07
9.918096497e-07
9.91836107067e-07
9.9187782988e-07
9.91937653923e-07
9.92018665551e-07
9.92122484518e-07
9.92248559887e-07
9.92391774658e-07
9.92545497999e-07
9.92706733924e-07
9.92881399176e-07
9.93065581972e-07
9.93261444655e-07
9.93476426858e-07
9.93711167091e-07
9.93955009585e-07
9.94178781042e-07
9.94371448716e-07
9.94532762681e-07
9.94658453665e-07
9.94750361863e-07
9.94813006433e-07
9.94853836718e-07
9.94882117209e-07
9.949052451e-07
9.94920794434e-07
9.94923200055e-07
9.94913059361e-07
9.94881062514e-07
9.94820046884e-07
9.94727134135e-07
9.94605313349e-07
9.94457993949e-07
9.94290318204e-07
9.94109967618e-07
9.9392029198e-07
9.93725620941e-07
9.93517952865e-07
9.93288610423e-07
9.93045991978e-07
9.92795228574e-07
9.92546703555e-07
9.92308893367e-07
9.92088615682e-07
9.91891334392e-07
9.91726093497e-07
9.91601829626e-07
9.91510849601e-07
9.91439926043e-07
9.91392214486e-07
9.91376443322e-07
9.9139252253e-07
9.91453411473e-07
9.91571469815e-07
9.91749300764e-07
9.92002503031e-07
9.92328238168e-07
9.92755619257e-07
9.93235396904e-07
9.93643508999e-07
9.93944263208e-07
9.94156261916e-07
9.9429229382e-07
9.94363026576e-07
9.94392301337e-07
9.94402621628e-07
9.94395772306e-07
9.94370604095e-07
9.94320065206e-07
9.94235071288e-07
9.94106447139e-07
9.93926774642e-07
9.93697948477e-07
9.93414699457e-07
9.93099218007e-07
9.9275677701e-07
9.92438090758e-07
9.92181921228e-07
9.92002367686e-07
9.91899842908e-07
9.91864405398e-07
9.91873279963e-07
9.91905528829e-07
9.91959744056e-07
9.92046933885e-07
9.92200503328e-07
9.92461253535e-07
9.92856553517e-07
9.93377697668e-07
9.93890776379e-07
9.94264689112e-07
9.9451066355e-07
9.94653341784e-07
9.94724063787e-07
9.94729354525e-07
9.94698374974e-07
9.94618196973e-07
9.94472741419e-07
9.94241141034e-07
9.93922580547e-07
9.93577794818e-07
9.93336129554e-07
9.93191337725e-07
9.93123358983e-07
9.93103982235e-07
9.9313475008e-07
9.93224921047e-07
9.93377920813e-07
9.93624575746e-07
9.93955239997e-07
9.94357541298e-07
9.94691457884e-07
9.94921298428e-07
9.95054899608e-07
9.9509986581e-07
9.95088317691e-07
9.95038635598e-07
9.94910495015e-07
9.94712107995e-07
9.94438704559e-07
9.94217483442e-07
9.94081798746e-07
9.9401382654e-07
9.93999780282e-07
9.94025053336e-07
9.94101081053e-07
9.94251228223e-07
9.94464951098e-07
9.9470264059e-07
9.9484650595e-07
9.94902055141e-07
9.94909302152e-07
9.94889346177e-07
9.94841514355e-07
9.94765842251e-07
9.94643113006e-07
9.94519742363e-07
9.94436455007e-07
9.94386952973e-07
9.94367480715e-07
9.94383109769e-07
9.94430617139e-07
9.94503370405e-07
9.9458330917e-07
9.94631719743e-07
9.94640227623e-07
9.94635479649e-07
9.9462137604e-07
9.94604902705e-07
9.94581782454e-07
9.94577978981e-07
9.94572667873e-07
9.94639904493e-07
9.94706670752e-07
9.9458461913e-07
9.94456295517e-07
9.94308429534e-07
9.94146449316e-07
9.93974563234e-07
9.93808784346e-07
9.93651975025e-07
9.93505658637e-07
9.93367675548e-07
9.93232453948e-07
9.93098393089e-07
9.92963229803e-07
9.92825732434e-07
9.92685706638e-07
9.92545176846e-07
9.92406901945e-07
9.922728394e-07
9.92145495031e-07
9.92025517207e-07
9.9191177887e-07
9.91806347195e-07
9.91712506538e-07
9.91628989933e-07
9.91549275075e-07
9.91472778393e-07
9.91406676244e-07
9.91349219808e-07
9.91298707697e-07
9.91258506705e-07
9.91227724316e-07
9.91209771627e-07
9.91203554589e-07
9.91205946851e-07
9.91215125697e-07
9.9123085553e-07
9.91252480988e-07
9.91281805173e-07
9.91321862153e-07
9.91377340657e-07
9.91450647759e-07
9.9154422375e-07
9.91658744935e-07
9.91795034581e-07
9.91951182254e-07
9.92124629298e-07
9.92313200845e-07
9.92522576178e-07
9.92750352723e-07
9.92994530714e-07
9.93258276204e-07
9.93542925686e-07
9.93838774096e-07
9.94112595656e-07
9.94345508837e-07
9.94534291086e-07
9.94682022975e-07
9.94796000759e-07
9.94878814313e-07
9.94932981784e-07
9.94961446708e-07
9.94972657478e-07
9.94972786169e-07
9.9496188921e-07
9.94934971813e-07
9.94889000487e-07
9.94822448628e-07
9.94729402513e-07
9.94604799888e-07
9.94445288491e-07
9.94252736196e-07
9.94032722907e-07
9.93793101463e-07
9.93550803069e-07
9.93302687773e-07
9.93032505268e-07
9.92738291544e-07
9.92431359555e-07
9.92129086738e-07
9.91842567998e-07
9.9158060008e-07
9.91348064777e-07
9.91151745749e-07
9.91004475179e-07
9.90909409013e-07
9.90852568655e-07
9.90818141347e-07
9.90802927741e-07
9.90814988256e-07
9.90867557332e-07
9.90988637828e-07
9.91191349368e-07
9.91493390587e-07
9.91884699166e-07
9.92386361314e-07
9.92948438206e-07
9.93430027627e-07
9.93785665113e-07
9.94040707331e-07
9.94210742355e-07
9.94307039844e-07
9.94348436133e-07
9.94357150119e-07
9.94345515578e-07
9.94309603942e-07
9.94240339904e-07
9.94130425564e-07
9.93970213845e-07
9.9375306822e-07
9.93481599706e-07
9.93153272095e-07
9.92793252299e-07
9.92398838053e-07
9.92032540449e-07
9.91739582994e-07
9.91527911652e-07
9.91398050398e-07
9.91344846578e-07
9.91345850184e-07
9.91375631867e-07
9.91436089043e-07
9.91541614349e-07
9.91731685681e-07
9.92043285187e-07
9.92515926442e-07
9.93118948976e-07
9.93705095086e-07
9.94124701993e-07
9.94398027395e-07
9.94562839299e-07
9.94658390771e-07
9.94678394427e-07
9.9466217373e-07
9.94587534035e-07
9.94424615524e-07
9.94145386037e-07
9.93767514805e-07
9.93355422222e-07
9.93067514193e-07
9.9289851095e-07
9.92825629525e-07
9.92812400434e-07
9.92853976592e-07
9.92969586772e-07
9.93157985299e-07
9.93442538014e-07
9.93815823853e-07
9.94277512413e-07
9.94659518949e-07
9.94917024459e-07
9.95064679333e-07
9.95120220056e-07
9.95116897319e-07
9.95071520549e-07
9.94936716243e-07
9.94717844749e-07
9.94411570767e-07
9.941577944e-07
9.94003773158e-07
9.93926016367e-07
9.93910790701e-07
9.93939450175e-07
9.9402081477e-07
9.94178487386e-07
9.94410760989e-07
9.94677853826e-07
9.94848622933e-07
9.94915963709e-07
9.9492529077e-07
9.94902731348e-07
9.94850707073e-07
9.94766677726e-07
9.9462919681e-07
9.94486238824e-07
9.94387291432e-07
9.94326916372e-07
9.94302953609e-07
9.94315836146e-07
9.94361683326e-07
9.94435873228e-07
9.94522700863e-07
9.94584611457e-07
9.9461037062e-07
9.94620898903e-07
9.94614086928e-07
9.94599018965e-07
9.94574077149e-07
9.94568073277e-07
9.94560867829e-07
9.9463714029e-07
9.94695057472e-07
9.94548835297e-07
9.94399065012e-07
9.94230884623e-07
9.94052812716e-07
9.93866185813e-07
9.93687363791e-07
9.93515213966e-07
9.9334949981e-07
9.93187509314e-07
9.93027236148e-07
9.92868145281e-07
9.92709301847e-07
9.92549497752e-07
9.92388089191e-07
9.92225988826e-07
9.92066623195e-07
9.91912427689e-07
9.91765654044e-07
9.91628207162e-07
9.91500716298e-07
9.91381878492e-07
9.91272403954e-07
9.91174347418e-07
9.9108197515e-07
9.90993857691e-07
9.90915093032e-07
9.90844494485e-07
9.90782293872e-07
9.90732885911e-07
9.90698961863e-07
9.90680167195e-07
9.90674566805e-07
9.90676877233e-07
9.90687214091e-07
9.90710040052e-07
9.90746613409e-07
9.90797033479e-07
9.90860059216e-07
9.90937539436e-07
9.91030631656e-07
9.91141343209e-07
9.91270020023e-07
9.91418372871e-07
9.91586494435e-07
9.91775165316e-07
9.91980860891e-07
9.92207538094e-07
9.92460463995e-07
9.92737963659e-07
9.93039737084e-07
9.9336884508e-07
9.93715344268e-07
9.94046731356e-07
9.94334156482e-07
9.94570800748e-07
9.94755179252e-07
9.94895167915e-07
9.94998018211e-07
9.95066289271e-07
9.95104626375e-07
9.95119784699e-07
9.95117047387e-07
9.95095604837e-07
9.95048602056e-07
9.94975378178e-07
9.94880534563e-07
9.94767564312e-07
9.94634618693e-07
9.94471594561e-07
9.94268818424e-07
9.94022768947e-07
9.9374043901e-07
9.93439739569e-07
9.93130358335e-07
9.92805985503e-07
9.92457626034e-07
9.92096958295e-07
9.91745952549e-07
9.91414266194e-07
9.91113824449e-07
9.90852920794e-07
9.90634240936e-07
9.90465952334e-07
9.90356910658e-07
9.90304198613e-07
9.90285022094e-07
9.9027902158e-07
9.90292224896e-07
9.90341235871e-07
9.90462127985e-07
9.90681002828e-07
9.91021846807e-07
9.91472604378e-07
9.92045970169e-07
9.9269098803e-07
9.93251757529e-07
9.93667535137e-07
9.93966790102e-07
9.94167181026e-07
9.94285762942e-07
9.94342037326e-07
9.94355321872e-07
9.94341254768e-07
9.94297616854e-07
9.94211265635e-07
9.94077141724e-07
9.9388747838e-07
9.93638529998e-07
9.93332924415e-07
9.9296549152e-07
9.92556647313e-07
9.92103837546e-07
9.91683398194e-07
9.91346699157e-07
9.9109853851e-07
9.90939300738e-07
9.90863783664e-07
9.90849699281e-07
9.9087567658e-07
9.90943114874e-07
9.91067838833e-07
9.91294078748e-07
9.91655267367e-07
9.92200532458e-07
9.92888734922e-07
9.93559849236e-07
9.94036978182e-07
9.94345745128e-07
9.94532623304e-07
9.94641248587e-07
9.94666478795e-07
9.94654414929e-07
9.94578779e-07
9.94401199645e-07
9.94083064788e-07
9.93652704251e-07
9.93174482405e-07
9.9283578596e-07
9.92642011141e-07
9.92564391475e-07
9.9255404927e-07
9.92600190311e-07
9.92736460827e-07
9.92957008584e-07
9.93277205189e-07
9.93694423427e-07
9.94214598831e-07
9.94647221879e-07
9.94932798468e-07
9.95098080029e-07
9.95168520561e-07
9.95171608818e-07
9.95126073047e-07
9.94976723522e-07
9.94729368926e-07
9.94385342786e-07
9.94093205089e-07
9.93918388432e-07
9.93828577487e-07
9.93807004829e-07
9.9383430068e-07
9.93920523204e-07
9.9409118357e-07
9.94349599631e-07
9.94649443379e-07
9.94850766355e-07
9.94939566797e-07
9.94958696678e-07
9.9493541727e-07
9.94876067488e-07
9.94776931824e-07
9.94615506342e-07
9.94445337084e-07
9.94329557207e-07
9.94263167827e-07
9.94239901153e-07
9.94252634121e-07
9.94296792808e-07
9.94369648114e-07
9.94457190277e-07
9.94527430828e-07
9.94571388524e-07
9.94600860644e-07
9.94601149691e-07
9.94587866348e-07
9.94561293137e-07
9.94552468005e-07
9.94543720261e-07
9.94630682216e-07
9.94678815025e-07
9.94503602971e-07
9.94336496098e-07
9.94156946358e-07
9.93972934212e-07
9.93781572775e-07
9.93590838719e-07
9.93402147241e-07
9.93213407898e-07
9.93025057858e-07
9.92839226564e-07
9.92656371318e-07
9.92476727016e-07
9.92298845888e-07
9.92120782728e-07
9.91942196443e-07
9.91765436585e-07
9.91592384164e-07
9.91426221145e-07
9.91270799553e-07
9.91127395175e-07
9.90992163777e-07
9.90866180928e-07
9.90754782974e-07
9.90652834121e-07
9.90557247142e-07
9.90471543377e-07
9.9039473715e-07
9.90327875569e-07
9.90276022969e-07
9.90241527089e-07
9.90222997372e-07
9.90214454336e-07
9.90211758853e-07
9.90214169934e-07
9.90229208852e-07
9.90265382762e-07
9.90327016749e-07
9.90412943612e-07
9.90519076892e-07
9.90639114524e-07
9.9077271455e-07
9.9092200672e-07
9.910893292e-07
9.91275080476e-07
9.91481118982e-07
9.91706661844e-07
9.91950780334e-07
9.92216603781e-07
9.92507170845e-07
9.92827854537e-07
9.93183637492e-07
9.93572246211e-07
9.93963438857e-07
9.94311937319e-07
9.9460544609e-07
9.94840397026e-07
9.95015446844e-07
9.95135708329e-07
9.95208285258e-07
9.95247674437e-07
9.952664813e-07
9.95271315471e-07
9.95258083705e-07
9.95211254112e-07
9.95125472274e-07
9.95006577611e-07
9.94862355667e-07
9.94699849178e-07
9.94518340846e-07
9.94306365407e-07
9.94046948612e-07
9.93733977599e-07
9.93378236995e-07
9.92996932915e-07
9.92600621935e-07
9.92184865753e-07
9.91770464694e-07
9.91377373311e-07
9.9100666785e-07
9.90671482917e-07
9.90385414401e-07
9.90151612132e-07
9.89971472369e-07
9.8985101771e-07
9.8979406295e-07
9.89780253081e-07
9.8978361682e-07
9.89803240442e-07
9.89858003506e-07
9.89985055236e-07
9.90217968e-07
9.90587118259e-07
9.91087243266e-07
9.9172526515e-07
9.92449965708e-07
9.93090372249e-07
9.93569176546e-07
9.939142495e-07
9.94145965131e-07
9.94286844695e-07
9.94359276412e-07
9.94378402401e-07
9.943612707e-07
9.94311116731e-07
9.94211043279e-07
9.94055042723e-07
9.93836129231e-07
9.93555401001e-07
9.9321744653e-07
9.92811859311e-07
9.92347989581e-07
9.91832574536e-07
9.91354348248e-07
9.90968370829e-07
9.9068119147e-07
9.90495616488e-07
9.90403696137e-07
9.90376847586e-07
9.90399104347e-07
9.90473638407e-07
9.90617809109e-07
9.9087989692e-07
9.91289401762e-07
9.91903048476e-07
9.92674047119e-07
9.93423644026e-07
9.9396436308e-07
9.94318215221e-07
9.94534577454e-07
9.94658245082e-07
9.94683303434e-07
9.94661039395e-07
9.94569210564e-07
9.9437202498e-07
9.9402112561e-07
9.93545720609e-07
9.93013913813e-07
9.92639472041e-07
9.92429078264e-07
9.92344981888e-07
9.92329701938e-07
9.92371527645e-07
9.92514115464e-07
9.92755044648e-07
9.93107546319e-07
9.93570005975e-07
9.94150176646e-07
9.9463987179e-07
9.94962137511e-07
9.951483955e-07
9.95236017264e-07
9.95241383863e-07
9.95187229658e-07
9.95017269028e-07
9.94737730712e-07
9.94356063663e-07
9.94025478395e-07
9.93825514916e-07
9.93721155381e-07
9.93694821899e-07
9.93721214685e-07
9.93810861471e-07
9.93992509099e-07
9.94278522394e-07
9.9461195352e-07
9.94845091644e-07
9.94959656031e-07
9.94995753242e-07
9.94977718468e-07
9.94911688903e-07
9.94794187956e-07
9.94609479384e-07
9.94409008298e-07
9.94274209709e-07
9.94204016716e-07
9.94183841401e-07
9.94197278358e-07
9.94240714935e-07
9.94312805795e-07
9.94399848327e-07
9.94474444546e-07
9.94535150404e-07
9.94579741057e-07
9.94585703042e-07
9.94574389277e-07
9.94548090396e-07
9.9453704215e-07
9.94527918378e-07
9.94624742149e-07
9.94663805641e-07
9.94462394788e-07
9.94280348891e-07
9.94093149193e-07
9.93905220131e-07
9.93711434262e-07
9.93511969794e-07
9.93305673156e-07
9.93093492949e-07
9.92878821361e-07
9.92669369504e-07
9.92466936124e-07
9.92270869222e-07
9.92078907752e-07
9.91888131194e-07
9.91696881496e-07
9.91505402818e-07
9.91315008994e-07
9.91129727646e-07
9.90954675295e-07
9.90790833018e-07
9.90633849041e-07
9.90488116993e-07
9.90360698945e-07
9.90245733248e-07
9.90140458999e-07
9.90050412736e-07
9.8997559782e-07
9.89913481509e-07
9.89863491933e-07
9.89829754848e-07
9.8981142817e-07
9.89803186984e-07
9.89801295978e-07
9.8980470656e-07
9.89816389383e-07
9.89843313401e-07
9.89894819888e-07
9.89978904156e-07
9.90096597357e-07
9.90241890191e-07
9.90408635022e-07
9.90590270238e-07
9.90786001169e-07
9.90997759776e-07
9.91226814853e-07
9.91473955104e-07
9.91740238893e-07
9.92024016433e-07
9.92329372316e-07
9.92661961328e-07
9.93029302568e-07
9.93434390027e-07
9.93854841804e-07
9.94249017111e-07
9.94594091571e-07
9.94877775162e-07
9.95093958769e-07
9.95243674112e-07
9.95334346304e-07
9.95377582551e-07
9.95387367218e-07
9.95380256763e-07
9.9536182595e-07
9.95321016036e-07
9.95243772216e-07
9.95126558593e-07
9.94968715898e-07
9.94779467096e-07
9.94567120959e-07
9.94333140625e-07
9.94058818751e-07
9.93726397356e-07
9.93329650114e-07
9.92884881194e-07
9.92412742442e-07
9.91923348043e-07
9.91450194274e-07
9.91016617865e-07
9.90615345131e-07
9.90253372211e-07
9.89944388162e-07
9.89695994531e-07
9.89508517606e-07
9.89384336532e-07
9.89322840972e-07
9.89306118153e-07
9.89313104551e-07
9.89342746525e-07
9.89411908763e-07
9.8955227089e-07
9.89801246188e-07
9.90194448996e-07
9.90735901249e-07
9.91428002474e-07
9.92222183915e-07
9.92934798505e-07
9.93472779076e-07
9.93862935527e-07
9.94127621173e-07
9.94291317055e-07
9.94380864712e-07
9.94406294516e-07
9.943868655e-07
9.94327233718e-07
9.94210696284e-07
9.94033224527e-07
9.93788547443e-07
9.93480091583e-07
9.93110915658e-07
9.92667556774e-07
9.92147886814e-07
9.91566098487e-07
9.91024253082e-07
9.90586488986e-07
9.90261644912e-07
9.90057354635e-07
9.89958089738e-07