/*--------------------------------*- C++ -*----------------------------------*\
  =========                 |
  \\      /  F ield         | OpenFOAM: The Open Source CFD Toolbox
   \\    /   O peration     | Website:  https://openfoam.org
    \\  /    A nd           | Version:  8
     \\/     M anipulation  |
\*---------------------------------------------------------------------------*/
FoamFile
{
    version     2.0;
    format      ascii;
    class       volScalarField;
    location    "0.000332";
    object      mu_err_lo;
}
// * * * * * * * * * * * * * * * * * * * * * * * * * * * * * * * * * * * * * //

dimensions      [0 0 0 0 0 0 0];

internalField   nonuniform List<scalar> 
22800
(
0.461804075285
0.461827126878
0.461849989993
0.461875839683
0.461906789015
0.461945281437
0.461994667836
0.462053883255
0.462121458442
0.462191909034
0.46226084631
0.462329600292
0.462396051488
0.462461227328
0.462525004407
0.462587461797
0.462649351967
0.462710934264
0.46276925804
0.462822265425
0.462868785409
0.462908926792
0.462943717292
0.462975946367
0.463006006776
0.463033200052
0.463054997809
0.46306918352
0.463079603164
0.463090370516
0.463102947625
0.463115202674
0.463123754616
0.463128324232
0.46313018031
0.463128510321
0.463121386556
0.46310721772
0.463084906269
0.463054336754
0.463017162534
0.462974141792
0.462925437319
0.462869816438
0.462801972685
0.462719471804
0.462627092849
0.46252661116
0.462416070266
0.462294877076
0.462157131585
0.462002419328
0.461833243846
0.461661360975
0.461500789051
0.461354140759
0.461225240121
0.461117626415
0.461034773058
0.46097611448
0.46094012184
0.460924788347
0.460920700192
0.460921828905
0.460929642702
0.460946218782
0.460976325655
0.461024929627
0.461096625965
0.461194599808
0.461324044649
0.461486591081
0.461683084242
0.461898639002
0.462105386143
0.462306745263
0.462504292159
0.462719312236
0.462949272164
0.463175069554
0.463385475707
0.463571385951
0.463725024918
0.46384594428
0.463927921497
0.463964647967
0.463961460638
0.463933793338
0.46389073451
0.463831427809
0.463739301101
0.463603045535
0.463392454068
0.463110259094
0.462721027429
0.462267219788
0.461865669744
0.461578576874
0.461392482553
0.461282059874
0.461225022726
0.461200317188
0.461194037018
0.461207287787
0.461243828949
0.461310741386
0.461403837189
0.461529862994
0.461708415527
0.461942635953
0.462244913302
0.462588010887
0.462971113976
0.463323962042
0.46360077617
0.463784665227
0.463881106291
0.46391413241
0.463905225847
0.463867166302
0.463806861049
0.463707937342
0.463542345315
0.463282548277
0.462919052989
0.462420675688
0.461917085199
0.461546666982
0.461313376283
0.461199046066
0.461162495213
0.461176405948
0.461241587002
0.461371275491
0.461583401365
0.461909761143
0.462317562799
0.462758933828
0.463060434962
0.463228449412
0.463295582446
0.463301463141
0.463267317763
0.463183971063
0.46303521495
0.462789038314
0.462442761957
0.462028267573
0.461699175313
0.461501699834
0.461407467958
0.461379139902
0.461400696824
0.461484596452
0.461663474045
0.461927701464
0.462266898083
0.462533886518
0.462690335399
0.462760178791
0.462772913795
0.462745750842
0.462651061921
0.462455406315
0.462189579014
0.461898296151
0.461717140653
0.461634210722
0.461612109799
0.461630124687
0.461686816768
0.46179564122
0.461955243968
0.46209097174
0.462169187853
0.462198963032
0.462198460345
0.462173886648
0.46212157324
0.462054101091
0.461989253718
0.461954471882
0.461953717419
0.461969636928
0.461994252398
0.46201580168
0.462033766103
0.462032983239
0.462024849395
0.461986224894
0.461822943745
0.461878845196
0.461924896097
0.461972337608
0.462021515596
0.46207674274
0.462141702541
0.462217699261
0.462299860151
0.462381300363
0.462458359317
0.462532000489
0.462604718253
0.46267510661
0.462743452457
0.462810465437
0.46287683704
0.462941862548
0.463003958591
0.463062227884
0.463116502523
0.463165805134
0.463210376192
0.463252223499
0.463292395339
0.463328956282
0.463358866245
0.463381553878
0.463399705887
0.463416955443
0.463435830098
0.463457241161
0.46347699293
0.463493697782
0.463505864188
0.463511162718
0.46350937616
0.46350035209
0.463480024674
0.463446668388
0.463401374209
0.463344218996
0.463276114557
0.46319663997
0.463105514546
0.463007938764
0.462904300626
0.462795109013
0.46267520774
0.46254681985
0.46240305658
0.462243274506
0.462066608754
0.461887496866
0.461723241138
0.461576891446
0.461448321842
0.46133656922
0.461245404566
0.461178189582
0.46113566584
0.461116259799
0.461110669151
0.461111566249
0.461120538624
0.461140854641
0.461175885786
0.461228900207
0.461302620221
0.461400671252
0.461528898643
0.461689991221
0.461879270504
0.462083063831
0.46229735842
0.462510717766
0.462721549314
0.462928955009
0.463143576518
0.463360217792
0.463566372462
0.463755912334
0.463926353167
0.464070999368
0.464175867672
0.464232790117
0.464243707858
0.464225423613
0.46418351731
0.464119065594
0.464021285492
0.463878825106
0.463655327013
0.463357136775
0.462946317597
0.462471592668
0.462055499207
0.461759498894
0.461571532932
0.461464792454
0.461414523693
0.461395817106
0.461391550817
0.46140347532
0.461435763256
0.461492603225
0.461575057616
0.461691871891
0.461846977647
0.46204803874
0.462324279589
0.462660175898
0.463058957149
0.463443243936
0.463754840305
0.463970649686
0.464079980183
0.46410324545
0.464082237203
0.464037599518
0.463974506372
0.463874516368
0.463720572388
0.463463211168
0.463090953874
0.462571126846
0.462044510723
0.461656923005
0.461409169805
0.461283320447
0.46123713694
0.461248830278
0.461310952134
0.461432636926
0.461633835039
0.461949835884
0.462353901433
0.46279266818
0.463089940448
0.463253234938
0.463318212566
0.463328473191
0.463297178329
0.463208677549
0.463056999364
0.462803612882
0.462452381358
0.462022991538
0.461688814516
0.461487391525
0.46138330127
0.461340686757
0.461361254069
0.461449137442
0.461642759187
0.461916022871
0.46226883096
0.462537399483
0.46268946637
0.46275280489
0.462759018798
0.46272849016
0.462629148397
0.462432812956
0.4621674023
0.461875442064
0.461697855001
0.461623322202
0.461607118841
0.461623543406
0.461680838481
0.461787532685
0.461952044523
0.462090082607
0.462174795929
0.462208137724
0.46220891591
0.462181640717
0.462123861166
0.462049787867
0.461980764944
0.461949254653
0.461955908143
0.461974018443
0.461998909485
0.46201418883
0.462025346754
0.462020688573
0.462014104641
0.461973306815
0.461847860348
0.461949970657
0.462038310623
0.462129415217
0.462221917279
0.462319780157
0.462426894288
0.462541017765
0.462654242167
0.462762784479
0.462867194729
0.462968428975
0.463066268004
0.46316016286
0.463250954078
0.463339141427
0.463425179142
0.463508865195
0.463589467532
0.463666894948
0.463740813033
0.46381055269
0.463874054095
0.463932006047
0.463986784081
0.464036441211
0.464078023236
0.464111664883
0.4641408005
0.464167571586
0.464193182809
0.464220822011
0.464248620876
0.464271989197
0.464289269644
0.464297532667
0.464296503693
0.464287024295
0.464263526656
0.464223293751
0.464166504706
0.464091717175
0.463999777175
0.46389184839
0.4637703615
0.463641694527
0.463508848473
0.46337001688
0.463219030722
0.463057412099
0.462876256044
0.462674073926
0.462455725169
0.462241977268
0.462049962858
0.461885820618
0.46174963192
0.461635670983
0.461540501473
0.461465385607
0.461413473621
0.461384271089
0.461372670402
0.461371471169
0.461382764302
0.461414329853
0.461469622774
0.46154873884
0.461649272358
0.461769635772
0.461911959118
0.462079689841
0.46227744982
0.462498896332
0.462736762457
0.462968465546
0.463199001505
0.463425630226
0.463662248366
0.463901892411
0.464129903119
0.464337245719
0.464520243717
0.464676935293
0.464804965069
0.464895692605
0.464934292201
0.464928298966
0.464890108775
0.464812398217
0.464692540799
0.464521415268
0.464265221643
0.46392824744
0.463476752546
0.462964488805
0.462521316461
0.462203706481
0.46199700305
0.461878408313
0.46182218344
0.461794965567
0.461777341296
0.461775758196
0.461793239969
0.461837186906
0.461914938343
0.46203537389
0.462198650298
0.462413490165
0.462704290479
0.46307704467
0.463506712543
0.463919594517
0.464245331119
0.464454163966
0.464550465017
0.464568001091
0.464547142491
0.464500644503
0.464432000943
0.464332983587
0.464177153995
0.463902221681
0.463486581513
0.462910428504
0.462333980602
0.461906919444
0.461629280276
0.461486053831
0.461431239727
0.46144129245
0.461499125465
0.461611145263
0.46179810932
0.46209806877
0.462499633185
0.462939342527
0.463241282766
0.463411342596
0.463485672798
0.463506786193
0.463476708676
0.463380826478
0.463213393702
0.462933370675
0.462550170976
0.462089292494
0.461722028794
0.461493507493
0.461363745031
0.461312660791
0.461335828712
0.461424747833
0.46162417404
0.461898897688
0.462262408952
0.462543257698
0.462702579384
0.462767973877
0.462774750409
0.462742001823
0.462640980078
0.46244112958
0.46216778251
0.461865998736
0.461681391005
0.461606658519
0.461591412126
0.461608933496
0.461670749884
0.461781057837
0.46195282128
0.462097222929
0.462187209582
0.462226738981
0.462232493402
0.462201776137
0.462133674589
0.462045118145
0.461962527913
0.461928801396
0.461943642053
0.461972000267
0.462005599676
0.462025719914
0.462044364679
0.462038828109
0.462036378405
0.461974361713
0.461850577778
0.461978045615
0.462105882456
0.462244775484
0.462392610213
0.462551031429
0.462716510243
0.462877499912
0.463028454554
0.463170475522
0.463306617903
0.463438115308
0.463566938968
0.463695528014
0.463823893939
0.463950897683
0.464074359257
0.464195147232
0.46431184158
0.464422226044
0.46452918097
0.464631062054
0.464720854139
0.464799833138
0.464872714772
0.46493910877
0.464995448368
0.465042009992
0.465083338487
0.465118768301
0.465150422147
0.465184137213
0.465214447541
0.465237371651
0.46525164632
0.465256075675
0.465252331946
0.465238947418
0.465210355914
0.465161515084
0.465089880888
0.464991486502
0.464865762966
0.464715046208
0.464546011854
0.464367715767
0.464184387304
0.463990374064
0.463784179988
0.463563907794
0.463317897042
0.463045969276
0.462761272236
0.462494241622
0.462256968503
0.462057489751
0.461901478875
0.46178597183
0.461699028446
0.461631622076
0.461580160661
0.461539207133
0.461514980268
0.46150967615
0.4615223565
0.46156577098
0.461646304833
0.461764093141
0.461911963565
0.462082007684
0.462269007774
0.462470906128
0.462697334929
0.462946874121
0.46321813812
0.463499704832
0.463782480295
0.464069528396
0.464361315869
0.464647026986
0.464915143369
0.465155930173
0.465360377576
0.465525263311
0.465662062344
0.465776560486
0.465838663958
0.465849715199
0.465815415946
0.46572385903
0.465571881316
0.465358790893
0.46505478054
0.464658163241
0.464130987438
0.463536201476
0.463026193021
0.462655538924
0.462404774946
0.462253080416
0.462178801249
0.462144070826
0.462125515012
0.462127568603
0.46214656419
0.462195458832
0.462286479519
0.462431175867
0.462637735195
0.462907645437
0.463255053008
0.463668620026
0.464122397726
0.464548451707
0.46488679506
0.465115238442
0.465233654203
0.465266340203
0.465249193258
0.465201939651
0.465128392838
0.465020510666
0.464838837678
0.464521168682
0.464036100635
0.463374977556
0.46271365123
0.462228041469
0.461909094558
0.461736745543
0.461665543098
0.461673252044
0.461732221617
0.461847561979
0.46203741005
0.462333896282
0.462749860754
0.463202120516
0.463521045937
0.463707637467
0.463796306139
0.463824287671
0.463791231774
0.463681794184
0.463489372206
0.463172122606
0.462743790387
0.462229868014
0.461808953139
0.461527916155
0.461361936762
0.461304615503
0.461325539696
0.46140665646
0.461598503524
0.461874319691
0.462247082647
0.462542118511
0.462716606434
0.462797906785
0.462813437355
0.462780851734
0.462676104339
0.462465569053
0.462174736783
0.461858607631
0.461672505062
0.461598087972
0.461583378314
0.461609990041
0.461676051482
0.461782763297
0.461956514996
0.462117099391
0.462219408716
0.46227222612
0.462289387867
0.462261343725
0.462190405206
0.462090567605
0.461991458725
0.46194404138
0.461950262306
0.461969773771
0.461996984847
0.462020297996
0.462048282031
0.462049356859
0.462053273526
0.461971764665
0.461861967809
0.462014300097
0.462172411566
0.462352004309
0.462548708074
0.462760931533
0.462976244709
0.463177182261
0.463364023624
0.463539275275
0.463706688077
0.463869481004
0.464032620889
0.464198594244
0.464367309046
0.464535700904
0.464700924954
0.464862689678
0.46501758594
0.465163942925
0.46530548773
0.46543823313
0.465554069807
0.465655489881
0.465750142632
0.465839271853
0.465915414418
0.465979169959
0.46603541786
0.466081294457
0.466120572872
0.46615305407
0.46617452074
0.466184925225
0.466186120927
0.466180399244
0.466167861521
0.466144392587
0.46610528298
0.466043612041
0.465955194533
0.465835479631
0.465682089775
0.465495859814
0.465284370099
0.465057429964
0.464819474602
0.464561787166
0.46429015648
0.464001410954
0.463684610031
0.463338849937
0.462979855625
0.462650565622
0.462367165005
0.462129967947
0.46194520447
0.461810130632
0.461718078692
0.461658087602
0.461616538551
0.461582561337
0.461559718679
0.461556184779
0.461571081753
0.461618088042
0.461707733952
0.461844265147
0.462023314077
0.462239898788
0.462486488903
0.46275181196
0.463030957466
0.463317565511
0.463623432498
0.463961371511
0.464319042791
0.464688905193
0.465055650492
0.465406756042
0.465732126582
0.466023651988
0.4662679201
0.466451667369
0.466586227479
0.46669114106
0.466761726765
0.466785060525
0.466761271015
0.4666711916
0.466496567002
0.466233608938
0.465859362227
0.46537818888
0.464747343872
0.464039804616
0.463438490013
0.462995673145
0.462683696845
0.462483583006
0.462379551086
0.46233649885
0.462321322162
0.46233139452
0.462368407144
0.4624427358
0.462567755266
0.462756992076
0.463021415179
0.463358315924
0.4637755584
0.46424056132
0.464745635684
0.465215986732
0.465594288012
0.465859562224
0.466011076439
0.466063454346
0.46605033707
0.466002672792
0.465922548908
0.465793710713
0.465566840113
0.465181790464
0.464598436974
0.463830081785
0.463074405136
0.462524187316
0.462162458098
0.461952717932
0.461848777323
0.461841002084
0.461886530637
0.462004375997
0.462218214595
0.462558826432
0.463027588749
0.463535280282
0.463891338649
0.464104751207
0.464204968364
0.464233536903
0.464188174166
0.464055246306
0.463829752961
0.463466375446
0.462979516487
0.462387618163
0.461896696604
0.461558978302
0.461362741889
0.461296706374
0.461313664897
0.461386628015
0.4615748489
0.461866347794
0.462268262241
0.462593628294
0.462793261334
0.462893289405
0.462913961619
0.46287676708
0.462764887933
0.462543988022
0.462229669146
0.461880261581
0.461668858185
0.461587247616
0.46157660128
0.461605918295
0.461676192075
0.461787382175
0.46196775246
0.462149110249
0.462271570093
0.462344364106
0.462373000548
0.46235001594
0.462280154451
0.462173180799
0.462055659907
0.461984498943
0.461971993528
0.461978972371
0.461999703053
0.462023917705
0.462057904211
0.462063495424
0.462071302975
0.461972468481
0.461874338614
0.462053734244
0.462242396148
0.462459849709
0.462698134084
0.462951075619
0.463195112909
0.463426021353
0.463641544242
0.463844850416
0.464044142578
0.464241777592
0.464441091851
0.464643903675
0.464850502729
0.465057904006
0.465262034727
0.465460001203
0.465648096679
0.465825355496
0.465993435502
0.466149274537
0.466288008706
0.466411501865
0.466529392915
0.466642542398
0.466740330951
0.466825340017
0.466900082821
0.466959573698
0.46700512985
0.467031700095
0.467040901628
0.467037360945
0.467023775892
0.467000495705
0.466968491188
0.466925095197
0.466865820212
0.466783732879
0.466675280013
0.466536864005
0.466367501772
0.466165997731
0.465935201687
0.465678921256
0.465400394938
0.465091264745
0.464755114347
0.464394930126
0.464006081055
0.463586644147
0.463150960017
0.462747945027
0.462405314348
0.462127720939
0.461910563209
0.461743066228
0.461621390968
0.461541815423
0.461500002068
0.46148353474
0.46148334571
0.461499352076
0.461538892106
0.461606426153
0.461704205033
0.461840931561
0.462024068841
0.46225858099
0.462541769796
0.46286548009
0.463218203347
0.463575040078
0.463940623861
0.464338930203
0.464772910249
0.465225924615
0.46567233625
0.466095732669
0.466483063811
0.466827049032
0.467117585836
0.467335610324
0.467476384011
0.467560565942
0.467611558307
0.467634093226
0.467616228717
0.467538366415
0.46735906035
0.467058966312
0.46661205231
0.466033458973
0.465292363042
0.464462907105
0.463752973014
0.46322915239
0.462853729929
0.462603545176
0.462461893711
0.462401009123
0.462388193464
0.462405304433
0.462458122355
0.462560004919
0.462721710379
0.462957477162
0.463277148946
0.463676988936
0.46416086749
0.464691820833
0.465273940943
0.465814977967
0.466247976138
0.466560990702
0.466753092602
0.466831810788
0.466830325815
0.466786261109
0.466696817366
0.466540723433
0.466259652098
0.465799101847
0.465101080679
0.464211470258
0.463347791625
0.462730131849
0.462328078255
0.462085751611
0.461945296911
0.461915896201
0.461939736753
0.462049449304
0.462288979698
0.462699698499
0.463255877011
0.463862907365
0.464287307397
0.46453654667
0.464644055489
0.464663571673
0.464602238299
0.464431716532
0.46415391906
0.463734540025
0.463184748642
0.462505324989
0.461943638721
0.461565256873
0.461348379279
0.461266816927
0.461271696158
0.461338332363
0.461536329579
0.461857916893
0.462308162102
0.462681442133
0.462908085148
0.463022531331
0.463044943294
0.463002757527
0.462883004877
0.462650997654
0.462309352902
0.461916690743
0.461665747834
0.461566815151
0.461553113496
0.461586254217
0.46166268575
0.461786154463
0.461988207349
0.46219836902
0.462343866369
0.462432659197
0.462467903915
0.462448955914
0.462381526566
0.462272425572
0.462144760657
0.462053745524
0.462015880163
0.4620004044
0.46201041744
0.462032566586
0.462069231273
0.462078057291
0.462088649833
0.461976531458
0.461891406314
0.462106338887
0.462326552372
0.462573914079
0.462835915577
0.463110605007
0.463373903511
0.46362746738
0.463871635008
0.464110394849
0.464346700159
0.464581337746
0.464815685433
0.46505152611
0.465289811777
0.465529196772
0.465764619454
0.465992476583
0.466209432129
0.466412659421
0.466601216235
0.466777018996
0.466939007502
0.467084131272
0.467220868587
0.467351331328
0.467467966374
0.467572524765
0.467664657932
0.467737850535
0.467788109605
0.467815955717
0.467824253438
0.467820830221
0.467805514938
0.467771696696
0.467717513984
0.467642824197
0.46754947169
0.467434725753
0.467296882631
0.467132983993
0.466942535382
0.466723026536
0.466474346496
0.466195370961
0.465891343019
0.465556449223
0.465182956072
0.46477339404
0.464328266149
0.463843126974
0.463332698653
0.462844864886
0.462422010691
0.462074047747
0.461803051394
0.461597365548
0.46144628412
0.461346014934
0.461289715553
0.46126745622
0.461271475792
0.461302963607
0.461371990691
0.461479538402
0.461618863676
0.461784851647
0.46198023786
0.462219900874
0.462518113286
0.462880128954
0.463295745386
0.463738663255
0.464194648987
0.464673035471
0.465187145805
0.465719801137
0.466238559062
0.466729102057
0.467173719658
0.467560044386
0.467884004339
0.468133410335
0.468295056834
0.468373211441
0.468401645969
0.468410543627
0.46839096568
0.468318296513
0.468139079057
0.467814717623
0.467309889389
0.466642799811
0.465795134648
0.464842709317
0.464015689273
0.463403105165
0.462962516355
0.462667631937
0.4624931892
0.462410419991
0.462390882248
0.462411570925
0.462475753509
0.462602775369
0.462800114183
0.46307926003
0.463445823124
0.463896062116
0.464437756236
0.465040973084
0.465709637832
0.466331047862
0.466829069646
0.467196348213
0.467432117525
0.467543955481
0.46756481581
0.467526341387
0.467426469385
0.467241796619
0.466906932661
0.466372644076
0.465566797085
0.464550966564
0.463561714515
0.462859217854
0.462404966829
0.462130172854
0.461970492865
0.461933409259
0.461951140613
0.46206231937
0.462323413266
0.462791398354
0.463424947368
0.464129598759
0.464629072586
0.464914984557
0.465029542577
0.465044807878
0.464976705238
0.464775611454
0.464450267081
0.463978181342
0.463363507069
0.462597871859
0.461961713092
0.461542084712
0.461299328784
0.461195894341
0.461191359898
0.461258222256
0.461477562283
0.46184098092
0.462346732049
0.462776477072
0.463033759457
0.46316597184
0.463197732915
0.463157545907
0.463030617109
0.462779451678
0.462399297954
0.461958447874
0.461662598651
0.461532142201
0.461504041601
0.461538237739
0.461625426464
0.461771086463
0.462008331007
0.462258509537
0.462428775129
0.46252642507
0.462560650337
0.462541919948
0.462476965569
0.462369813056
0.462241080499
0.462137806707
0.462073183685
0.462029859374
0.462029434485
0.462048960803
0.462088024595
0.46210099839
0.462113858644
0.461986023979
0.461915278033
0.462172838868
0.462418569697
0.462682689839
0.462953473249
0.463235177888
0.463516066931
0.463794054059
0.464072217368
0.464349912335
0.464623997033
0.464893792492
0.465158947145
0.465421593955
0.465684603867
0.465948481308
0.466209753617
0.466465636126
0.466711415744
0.466941381786
0.467153630805
0.467353839488
0.467540404961
0.46770541148
0.467856454185
0.467998099672
0.468125122972
0.468238977729
0.468338105282
0.468414990056
0.468466143503
0.468493622427
0.468506291797
0.468510289259
0.468506713571
0.468484410904
0.468430767887
0.468339378637
0.468211987535
0.468054669864
0.467876782878
0.467678848101
0.467457727813
0.467209981561
0.46693504665
0.466630204632
0.466296650379
0.465935795656
0.465543058723
0.465114005356
0.464640773097
0.46411610253
0.463543453399
0.462967448876
0.462454690368
0.462023118954
0.461677833719
0.461420685511
0.461244073798
0.46113751057
0.461079682747
0.461052073734
0.461044977201
0.461064401514
0.461133151793
0.46125910444
0.46143371224
0.461645571508
0.461884364035
0.462151170771
0.462462885698
0.462844545171
0.463305259959
0.463829287039
0.464391387547
0.464976068206
0.465589938542
0.466202320181
0.466783684566
0.467332363742
0.467828822668
0.468252798634
0.468599493859
0.468866726979
0.469045472909
0.469130004768
0.469150502745
0.469145509897
0.46911638294
0.469035105308
0.468846573724
0.468501080987
0.467953832245
0.467213069587
0.466269144813
0.465198455001
0.464253603756
0.463547975065
0.463039851931
0.462698846471
0.462491598053
0.462385066359
0.462356938676
0.462382133404
0.462455897307
0.462603102481
0.462832633933
0.463154853855
0.463568267009
0.464066264141
0.464664369974
0.465349022408
0.46611050469
0.466817751887
0.467389070354
0.467814438127
0.468089441503
0.468225696342
0.468265499103
0.468232503481
0.468122017623
0.467908352797
0.467520090922
0.46691385365
0.466006338679
0.464867708228
0.463762378886
0.462966088558
0.462445456757
0.462127299931
0.461945511044
0.461908681286
0.461941403984
0.462076385409
0.462366317526
0.462882547419
0.463582526962
0.464366345923
0.464918731703
0.465229292721
0.465353463726
0.465376027323
0.465314265789
0.465103753956
0.464748191671
0.464228282033
0.4635467533
0.462692650045
0.461972516549
0.461498987347
0.461225444362
0.461096796334
0.461088917722
0.461168424479
0.461418009198
0.461828692655
0.462389791303
0.462876141534
0.463170480729
0.463324141332
0.46336292026
0.463324054002
0.463192054742
0.462924663023
0.462503839387
0.462013553401
0.461670936143
0.4615026324
0.461449610898
0.461476100852
0.461573095019
0.461745729947
0.462017190226
0.462311930289
0.462510183027
0.462613439467
0.462643120785
0.462623352603
0.462559453237
0.462453412996
0.462325400459
0.462215710414
0.462126457602
0.462060905117
0.46205214088
0.46206877243
0.462107433982
0.462123676437
0.462137089919
0.461994755207
0.461937338198
0.462233427872
0.462501152761
0.462776559321
0.463053143266
0.463338456502
0.463632246648
0.463936223983
0.464249002481
0.464565589613
0.464874610916
0.465173401242
0.46546291091
0.465746469417
0.466028386357
0.466311111342
0.466594284094
0.466875960949
0.467150178085
0.467409350471
0.467652008842
0.467884585035
0.468100557163
0.468289440373
0.468459906059
0.468616036447
0.468749608823
0.468860605881
0.468952775756
0.469026960052
0.469077029963
0.469104230398
0.469116462286
0.469119269019
0.469114206857
0.469096866872
0.469056907022
0.468980468637
0.468855700173
0.468681096675
0.468465605046
0.46821837472
0.467949161333
0.467659166263
0.467345553586
0.467006475845
0.466640801743
0.466247006418
0.465827573056
0.465376514077
0.464885543187
0.464343652962
0.463746545337
0.463127305172
0.462547240576
0.462039809752
0.461622917633
0.461305380871
0.461085555473
0.460952454641
0.460888995203
0.460874634651
0.460885070345
0.46091212111
0.460972021079
0.46108541145
0.461257509273
0.461489324424
0.461767361027
0.462079457261
0.462423504769
0.462827077223
0.463316422196
0.463900887539
0.464556650991
0.465253411441
0.465976337073
0.466675950864
0.467317631417
0.467912003956
0.468448578139
0.468906914176
0.469275580033
0.469553955876
0.469738404711
0.46982976254
0.46985460793
0.469844228012
0.469800189599
0.469697447081
0.469488979206
0.46911934292
0.468535960685
0.467733383425
0.466708780458
0.465534816691
0.464483024072
0.463689984313
0.4631153899
0.462725836654
0.46248501971
0.462353317551
0.462315921008
0.462344492744
0.462432192452
0.462603612952
0.462864741883
0.46322490852
0.463679210827
0.464223314329
0.464877285953
0.465644563423
0.466504511035
0.46730632666
0.467954764767
0.468436310638
0.468739310519
0.468886583679
0.46893440263
0.468900889658
0.468775965622
0.46853039939
0.468086038559
0.467406476265
0.466407087262
0.465160452887
0.463951034459
0.463071098712
0.462486305083
0.462120779996
0.461897454241
0.461850814036
0.461908231666
0.46208590377
0.462421482294
0.462979915652
0.463731400027
0.464580854429
0.465178149479
0.465512135059
0.46565051572
0.465685512699
0.465632982223
0.465422141483
0.46504654646
0.464482260302
0.463732912588
0.462792430035
0.461987067022
0.461450838239
0.461142089075
0.460991698563
0.46099141298
0.461092645045
0.461373084034
0.461826634385
0.462439142186
0.462979555703
0.463306370615
0.463479045297
0.4635218785
0.463483099037
0.463346596815
0.463068422289
0.462611337773
0.462078612793
0.461693278873
0.461493021034
0.46141307652
0.46142987286
0.461526912488
0.461723418515
0.462025702791
0.462360001058
0.462585042
0.462696029155
0.462724426648
0.462697799975
0.462633273143
0.462524546791
0.462393132891
0.462277730624
0.462170359022
0.462094227311
0.462081719603
0.462096858472
0.462134723562
0.462149300658
0.462159492222
0.462004407687
0.461952277075
0.462275629944
0.462564086161
0.462851251272
0.463135556667
0.463429596206
0.463735793829
0.464060672562
0.464405760313
0.464764253896
0.465108066345
0.465431830331
0.465738864184
0.46603671344
0.466332222328
0.466629624631
0.466931214634
0.467235138302
0.467534423405
0.467819996903
0.468092346145
0.46835569023
0.468598238238
0.46881146329
0.469006445843
0.469185282554
0.469336169174
0.469451906956
0.469538319279
0.46960480814
0.469650018227
0.469671325656
0.469675694444
0.469667351242
0.4696488132
0.469621065297
0.469577135444
0.469505403396
0.469395313729
0.469239742124
0.469032731174
0.468771640121
0.468460650942
0.468111724837
0.46774190198
0.467357585917
0.466954863269
0.466528335711
0.466074894078
0.465590848262
0.465066852072
0.464498559105
0.463882026402
0.463247457369
0.46265165814
0.462115898948
0.461650470691
0.461270566585
0.460992781494
0.460816782461
0.460736734323
0.460727849977
0.460756195655
0.460812673739
0.460889532831
0.460995763989
0.461146444731
0.461367382902
0.461658514529
0.462010641404
0.462409370244
0.462852542199
0.463370910785
0.463994309386
0.464718814972
0.465509521019
0.466330795214
0.467118536914
0.467821529259
0.468452331953
0.46901599785
0.46950433184
0.469899662455
0.470194094143
0.470383247133
0.470478607879
0.470509211859
0.470493641338
0.470432684305
0.470307681618
0.470075560619
0.469681427038
0.469065361353
0.468208689119
0.467114522917
0.465851425956
0.464705036959
0.463835663651
0.463202409556
0.462767852274
0.462492577197
0.462339918863
0.462294199993
0.462324070082
0.462424703033
0.462616579759
0.462903969063
0.463295879102
0.463789709547
0.464383362605
0.4650944811
0.465937371728
0.466887310341
0.467773512594
0.4684884883
0.469017545751
0.469345773544
0.469504462655
0.469556417266
0.469516098415
0.469370979855
0.469088375247
0.468587483979
0.467835122956
0.466752686713
0.465411216359
0.464111436072
0.463172069938
0.462542635145
0.462134800222
0.461869041969
0.461798609874
0.461863049104
0.462071989812
0.462452511438
0.463053532787
0.46385677265
0.464770453437
0.465416525309
0.465780922241
0.465939274962
0.465988567537
0.465942422046
0.465735338705
0.465345207337
0.464732384797
0.463914584926
0.462894434676
0.46201007374
0.461418652277
0.461073417434
0.460903592087
0.460907425062
0.461027421278
0.461331596464
0.461820924944
0.462477068889
0.463073158012
0.463435762202
0.463625626219
0.46366941813
0.463626340591
0.463483030427
0.463200700288
0.462718472675
0.462150004762
0.461728523794
0.461501970299
0.461401727943
0.461411919035
0.461505787433
0.461716271321
0.462042151193
0.462409789209
0.46265963569
0.462777389802
0.462804108571
0.462772591528
0.462703925185
0.46259104373
0.462455840743
0.462333090951
0.462211757741
0.462132111374
0.462119799251
0.462134548938
0.46216956341
0.462176232981
0.46218100945
0.46201784097
0.461954820517
0.462295271622
0.462605165392
0.462908725871
0.463208291953
0.463515801398
0.463837077862
0.464182223175
0.464555877136
0.464950245894
0.465323736207
0.465668610429
0.465991125535
0.46630201303
0.466610519739
0.466922260446
0.467239631523
0.467562168397
0.467880861829
0.468186961664
0.468484458074
0.468770665263
0.469029954096
0.469259981044
0.469473575881
0.469671297183
0.469842328483
0.469978312426
0.470083893432
0.470161995532
0.47020678126
0.470219821144
0.470211113728
0.470183153149
0.470142417516
0.470094838332
0.470035658068
0.469953264503
0.469837335918
0.469682011408
0.469484594356
0.469240507573
0.468941924311
0.468581923513
0.468167623005
0.467722083026
0.467265282933
0.466796458411
0.46630406603
0.46578055947
0.465219410764
0.464616679365
0.463970253974
0.46331100253
0.462703076136
0.462159825225
0.461687924616
0.461291083091
0.460973295353
0.4607513641
0.460636770883
0.460618229616
0.460653882974
0.46073378678
0.460833668396
0.460942964227
0.461077751665
0.461282971102