/*--------------------------------*- C++ -*----------------------------------*\
  =========                 |
  \\      /  F ield         | OpenFOAM: The Open Source CFD Toolbox
   \\    /   O peration     | Website:  https://openfoam.org
    \\  /    A nd           | Version:  8
     \\/     M anipulation  |
\*---------------------------------------------------------------------------*/
FoamFile
{
    version     2.0;
    format      ascii;
    class       volScalarField;
    location    "0.000332";
    object      mu_err_hi;
}
// * * * * * * * * * * * * * * * * * * * * * * * * * * * * * * * * * * * * * //

dimensions      [0 0 0 0 0 0 0];

internalField   nonuniform List<scalar> 
22800
(
0.00553728328682
0.00553780846179
0.00553818514463
0.00553853390028
0.00553882833789
0.0055389445878
0.00553938537259
0.00553964145698
0.00554028899428
0.00554128162307
0.00554221994132
0.00554311894143
0.0055440761377
0.00554494174412
0.00554566354862
0.00554619808189
0.00554658606855
0.00554688635619
0.00554728033914
0.00554802518153
0.00554914555128
0.0055502278057
0.00555096658938
0.00555150614634
0.0055520721075
0.00555283019142
0.00555377723387
0.00555436561839
0.00555442245967
0.00555412322451
0.00555398335401
0.00555437813695
0.00555482484536
0.00555521690008
0.00555539869449
0.0055553733768
0.00555541262057
0.00555551298203
0.00555549677704
0.00555528871309
0.00555485986852
0.00555424661838
0.0055535925769
0.00555295058244
0.00555215322832
0.00555100357215
0.00554964732192
0.00554831704041
0.00554739011843
0.00554646913125
0.00554556255597
0.00554465445966
0.00554330196843
0.00554142602907
0.00553966331483
0.00553790202709
0.00553603786952
0.00553405255971
0.00553212114974
0.00553043879325
0.00552902797371
0.0055283138717
0.00552833546701
0.00552865180064
0.00552894013169
0.00552941418768
0.00552986520813
0.00553016342695
0.00553045407314
0.00553065789462
0.00553086781604
0.00553127779854
0.00553193991822
0.00553445266497
0.00553802077821
0.00554091665218
0.00554259447209
0.0055445650063
0.00554732207334
0.00555029383496
0.00555287430602
0.00555533159354
0.00555754980827
0.00555940656281
0.00556149944712
0.00556368098182
0.0055649137877
0.00556513566088
0.00556410228926
0.00556291572071
0.00556213755855
0.00556131706619
0.005560389515
0.00555874306792
0.00555573737552
0.00555086502307
0.0055438455822
0.00553772940482
0.00553325901539
0.00553057467078
0.0055294192705
0.00552942791635
0.00552975787448
0.00552995592076
0.00553040979874
0.00553152553171
0.00553316715013
0.00553433279399
0.00553479837851
0.00553606231752
0.00553763149976
0.00554106676071
0.00554522470157
0.00554999991351
0.00555450103878
0.00555846829634
0.00556117661986
0.00556239041486
0.00556283731036
0.00556232606574
0.00556120354502
0.00556018534373
0.00555858295265
0.00555651039883
0.00555374224902
0.00554946278098
0.00554323891031
0.00553757938296
0.00553305896607
0.00553024724244
0.00552924590943
0.00552930808155
0.0055299631064
0.00553109331724
0.00553250504727
0.00553485114243
0.0055381825862
0.00554347767205
0.00554809090518
0.00555121357721
0.00555298634605
0.00555373648317
0.00555379888315
0.00555340888911
0.0055523476932
0.00555054526492
0.0055472141348
0.00554298488366
0.00553782496342
0.00553440603243
0.00553256109698
0.00553165754308
0.00553152700485
0.00553196185476
0.00553369891661
0.00553625470518
0.00554038355568
0.00554429844166
0.00554661116532
0.00554768918566
0.00554806420531
0.00554792646041
0.00554737000516
0.00554567832591
0.00554305743872
0.00553946950073
0.00553684599643
0.00553542863996
0.00553482172264
0.0055347226139
0.00553495940017
0.00553545411471
0.00553698604887
0.00553896767476
0.00554047193987
0.00554121362838
0.00554136101487
0.00554115549443
0.00554049757325
0.00553961989486
0.00553884465462
0.00553865985641
0.00553890082102
0.00553917879538
0.0055394365828
0.00553948221711
0.00553953157841
0.00553949907988
0.00553949193142
0.00553922756007
0.00553743054329
0.00553835677965
0.00553916472599
0.00553992629872
0.00554061949983
0.00554101722406
0.00554165197095
0.00554213224733
0.00554316080188
0.0055444780082
0.00554554571096
0.0055463922463
0.00554707309122
0.00554765064649
0.00554808728107
0.00554839382644
0.00554865868891
0.0055489809689
0.00554954668478
0.00555053752471
0.00555183115272
0.00555312056051
0.00555411380973
0.00555476766738
0.00555540105923
0.00555629100298
0.00555743283069
0.00555828106715
0.00555863349908
0.00555851833472
0.00555843555198
0.00555875883784
0.00555936614851
0.00555980658566
0.00556003011429
0.00556008073531
0.00556004935108
0.0055600323668
0.00555997297993
0.00555979089756
0.00555938724443
0.00555869787316
0.00555782990613
0.00555685315355
0.00555594688415
0.00555489026843
0.00555337731898
0.0055516737013
0.00555046340731
0.00554927807908
0.00554811194905
0.00554704178371
0.00554564637424
0.0055436284424
0.00554161377428
0.00553978910535
0.00553836292376
0.00553706288084
0.00553548149188
0.00553371143522
0.00553206314679
0.00553102842324
0.00553074567006
0.0055308590476
0.00553103899837
0.00553146338926
0.0055320841296
0.00553279670571
0.00553343304941
0.00553374402414
0.00553382638781
0.00553418976868
0.00553552693072
0.00553707057286
0.00553879994681
0.00554219137606
0.00554448820402
0.00554776178495
0.00555063138954
0.00555300790448
0.00555520656704
0.00555706418046
0.00555869552789
0.00556069396971
0.00556326528765
0.00556605079157
0.00556788709719
0.00556850502354
0.00556811292936
0.00556682691362
0.00556540221861
0.00556403695083
0.00556307718871
0.00556157272948
0.00555841284942
0.0055533935734
0.0055461626209
0.00553963833389
0.00553484713529
0.00553204830426
0.005530902038
0.00553114683541
0.00553178876257
0.00553224416222
0.0055330524611
0.00553416363619
0.00553539555851
0.00553642246973
0.00553749800057
0.0055378026583
0.00553836607734
0.00553991644328
0.00554327693125
0.00554803970865
0.00555350697883
0.00555922911111
0.0055635308931
0.00556566428836
0.0055655388914
0.005564336816
0.0055627681029
0.00556110114367
0.00555927942483
0.00555737447855
0.00555541768637
0.00555143945716
0.0055449169841
0.00553886777993
0.00553382888349
0.0055305035334
0.0055292313011
0.0055294173026
0.0055304449213
0.00553175299124
0.00553298351598
0.00553501148434
0.00553806169741
0.00554325700725
0.00554769721185
0.00555070802226
0.00555255715315
0.00555360768655
0.00555412219938
0.00555412141585
0.0055532920356
0.0055513137396
0.00554757823661
0.0055429343393
0.00553743657851
0.00553392027108
0.00553192726692
0.00553095330753
0.00553091740975
0.00553137986104
0.00553317071605
0.00553591510514
0.00554047828463
0.00554461381785
0.0055468677495
0.00554774820596
0.00554786619839
0.00554759213247
0.00554700793749
0.00554545407553
0.00554300283504
0.00553961115657
0.00553725333525
0.00553608438309
0.00553556210538
0.00553524897961
0.00553493313169
0.00553516077947
0.00553637937337
0.00553845510994
0.00554022380685
0.00554114575492
0.00554139523302
0.00554122745133
0.00554066529529
0.00553966952949
0.00553887988807
0.00553878787403
0.00553899210992
0.00553925356689
0.00553940553219
0.00553925302153
0.00553927563034
0.00553923454
0.00553924529674
0.0055389807843
0.00553757568577
0.00553896948553
0.00554025404094
0.00554158023386
0.00554297263748
0.0055441279604
0.00554545363676
0.00554681171901
0.00554856207405
0.00555002780311
0.0055511593879
0.00555198680477
0.00555262462815
0.00555311110274
0.00555352975696
0.00555404518956
0.00555464887197
0.00555536074203
0.00555639394939
0.00555771887601
0.00555908864803
0.00556052466217
0.0055618582534
0.00556268676934
0.00556337997764
0.00556445760397
0.00556593070685
0.00556706445452
0.00556774851587
0.00556815072122
0.00556859050107
0.00556909144408
0.00556968790454
0.00557012004369
0.0055703398522
0.00557040977985
0.00557038002585
0.00557032220482
0.00557016530828
0.00556992337551
0.0055695664234
0.00556894699929
0.00556796207349
0.00556655318796
0.00556486955596
0.00556308820395
0.00556126473628
0.00555926327809
0.00555799430826
0.00555660895276
0.00555509005267
0.00555336293586
0.00555120747386
0.00554851523229
0.00554577710031
0.00554319903432
0.00554140763893
0.00554044553582
0.00553962721349
0.00553844297593
0.00553699625982
0.00553578098007
0.0055349635839
0.00553456187925
0.00553433993223
0.00553429442519
0.00553471565097
0.00553563131861
0.00553686353855
0.00553810922184
0.00553907966712
0.0055397381479
0.0055406043269
0.00554155469334
0.00554337117346
0.00554735062736
0.0055501527839
0.00555313421069
0.00555584254952
0.00555830657351
0.00556083164881
0.00556339685395
0.00556570616827
0.00556761758493
0.00556961244313
0.00557245283693
0.00557479953507
0.00557597457134
0.00557643923315
0.00557568362106
0.00557415695606
0.00557241067087
0.00557073228915
0.0055686167491
0.00556463527411
0.00555882474916
0.00555103157008
0.00554436286246
0.00553942233376
0.00553635326027
0.00553516023912
0.00553556116684
0.00553660014951
0.00553732435749
0.00553819788186
0.00553908361702
0.00553961499692
0.00553999920472
0.00554043476328
0.00554043645749
0.00554046542428
0.00554174586341
0.0055461764048
0.0055524132372
0.00555953622841
0.00556579443682
0.00556965418328
0.00557096238364
0.00557056578306
0.00556894881158
0.00556675718056
0.00556462188695
0.00556326463113
0.00556180565334
0.00556023408478
0.0055558082969
0.00554857105381
0.00554188762409
0.0055359771499
0.00553195111628
0.00553033919962
0.00553046240563
0.00553161786033
0.00553312368242
0.00553445302814
0.00553639200009
0.00553912621934
0.00554440647127
0.00554911940411
0.00555231286067
0.00555411406402
0.00555492005413
0.00555514962497
0.00555497579505
0.00555417586685
0.00555215168438
0.0055480791191
0.00554333324763
0.00553750528404
0.00553367333547
0.00553135788683
0.00553019736317
0.00553023694709
0.00553064569532
0.00553216707261
0.00553485664076
0.00553946288175
0.00554387077602
0.00554648706805
0.0055475481628
0.00554776936039
0.00554746779673
0.00554687319177
0.00554530553417
0.00554284176495
0.0055392326558
0.00553672206136
0.00553571895805
0.00553544149699
0.00553515887972
0.00553481633114
0.00553484660322
0.00553625209944
0.00553846944759
0.00554021271947
0.0055411272324
0.0055413119459
0.00554090694658
0.00554004873287
0.00553897125234
0.00553838672168
0.00553857165624
0.00553888031317
0.00553911383019
0.00553919773989
0.00553906530349
0.00553927718742
0.00553925752148
0.00553934522588
0.00553886078655
0.00553778252768
0.00553934927129
0.00554078147756
0.00554242964943
0.00554431243884
0.00554623593402
0.00554832920423
0.00555064753573
0.00555279903117
0.00555447100438
0.00555591204942
0.00555707272185
0.00555808198959
0.00555899525959
0.00556006870013
0.00556139442616
0.00556272150148
0.00556415775435
0.00556593115482
0.00556756886429
0.00556884963819
0.00557047431011
0.00557221429447
0.00557328551604
0.00557402435984
0.00557526762163
0.00557713608727
0.00557855131046
0.00557956793509
0.00558056748525
0.00558151019156
0.00558221425987
0.00558256675158
0.00558269280945
0.00558261387284
0.00558256990853
0.00558255997153
0.00558258268991
0.00558250407084
0.00558223317718
0.00558191221729
0.00558161840604
0.00558104330279
0.00557972424188
0.0055776225518
0.00557509922214
0.0055726840892
0.00557001068874
0.00556826713469
0.0055661137664
0.00556369746732
0.00556074910254
0.00555725414377
0.00555351778899
0.00555002763269
0.00554640808963
0.00554313937686
0.00554109625788
0.00554032697438
0.0055400229637
0.00553977671637
0.00553952012
0.00553872837799
0.00553810258898
0.00553760547921
0.00553691796495
0.00553659906849
0.00553712193291
0.00553849167639
0.00554057170443
0.005543003022
0.00554520463001
0.00554689061071
0.00554816345629
0.00554980169845
0.00555322646065
0.00555640320309
0.00555960872858
0.00556272835865
0.0055658572552
0.00556930336118
0.00557311002427
0.00557673104218
0.00557912305375
0.00558050949573
0.00558175014726
0.00558379278926
0.00558566174966
0.00558674219037
0.00558717221009
0.00558603914814
0.00558365279752
0.00558079393561
0.00557769411002
0.00557286649569
0.00556610739642
0.00555768131433
0.00555086667336
0.00554577546961
0.00554216973147
0.00554039464988
0.00554050144646
0.0055414281745
0.00554209916545
0.0055428850716
0.005543387206
0.00554348957518
0.00554351522642
0.00554383131375
0.00554451590881
0.00554568333939
0.00554892952368
0.00555482430509
0.00556167709823
0.00556788646564
0.00557317007579
0.00557663850071
0.00557777590639
0.00557738175801
0.00557557892524
0.00557321204825
0.00557111484392
0.00556989144567
0.00556822016983
0.00556647892592
0.00556146379692
0.00555321681237
0.00554579092204
0.00553968082704
0.00553520440614
0.0055327114711
0.00553200176666
0.00553228333874
0.00553358427193
0.00553534513972
0.00553812214824
0.00554088182644
0.00554663326294
0.0055519990602
0.00555565762203
0.0055575336896
0.0055580909088
0.00555780471043
0.00555703768189
0.00555548988341
0.0055532405988
0.00554911266504
0.00554420259906
0.00553803258079
0.00553378018937
0.00553130427753
0.00552997423039
0.00552967942571
0.0055297891247
0.0055310809484
0.00553346504071
0.00553787097508
0.00554230410841
0.00554536314597
0.005546871413
0.00554747342615
0.00554732018253
0.00554672124793
0.00554492634274
0.00554221400153
0.00553829076651
0.00553566819318
0.00553471813026
0.00553421775276
0.00553431390552
0.00553460790356
0.00553512875892
0.00553656519105
0.00553883385781
0.00554055278885
0.00554140507132
0.00554153262005
0.00554104832638
0.00554008066134
0.00553904038364
0.00553839165518
0.00553849885406
0.00553877673301
0.00553887343607
0.00553891741742
0.00553890644469
0.00553913713082
0.00553919373479
0.0055393841745
0.00553871718216
0.00553817503109
0.00554015384301
0.00554166118215
0.00554320932007
0.00554489262197
0.0055471382188
0.00554997112817
0.00555282020628
0.00555519026431
0.00555727336074
0.00555927737221
0.00556113728158
0.00556290007055
0.00556467197387
0.00556664900486
0.00556882252303
0.00557089688933
0.00557302029062
0.0055752772558
0.00557694966472
0.00557822693106
0.00558018610515
0.00558236748523
0.0055837643066
0.00558465213927
0.00558626582838
0.00558846569827
0.00559010260403
0.00559149142629
0.00559320764745
0.00559461650539
0.00559547253139
0.00559575810346
0.00559547595039
0.0055949289611
0.00559451427345
0.00559414687542
0.0055940280725
0.00559384216564
0.0055932369382
0.00559246887248
0.00559199482634
0.00559179259276
0.00559123146548
0.00558981590303
0.00558758830602
0.00558511149827
0.00558236280139
0.00557948909846
0.005576006249
0.00557241442382
0.00556833631653
0.00556347249633
0.00555802234387
0.0055534202245
0.0055492283046
0.00554550700469
0.00554250631256
0.00554051331933
0.00553956565944
0.00553973410527
0.00554033812224
0.00554049856006
0.00554048319048
0.00554033493628
0.00553976107799
0.00553895539724
0.00553858569796
0.00553914634586
0.00554068863011
0.00554324668605
0.00554694031676
0.00555105544366
0.00555442329151
0.00555651102794
0.00555884549023
0.00556167907614
0.00556518550761
0.00556923277425
0.00557366576657
0.0055782811471
0.00558304806668
0.00558788448517
0.00559182894636
0.00559331985418
0.00559312848993
0.00559369255573
0.00559517799688
0.0055965483826
0.00559808443981
0.00559833133491
0.00559624289414
0.00559232926903
0.00558786042117
0.00558163342307
0.00557336321046
0.00556383918957
0.00555686559373
0.00555152568632
0.00554735880875
0.00554461852762
0.00554370407859
0.00554403008955
0.005544351173
0.00554507507882
0.00554556301784
0.00554573775473
0.00554597506141
0.00554691657785
0.00554888616446
0.00555182810888
0.00555652507543
0.00556301863206
0.00556956702348
0.00557558352038
0.00558074176134
0.00558424095417
0.00558559799959
0.00558535299082
0.00558366807426
0.00558155423865
0.00557987586715
0.00557876709778
0.00557638498032
0.00557365241856
0.0055668826815
0.00555696583599
0.00554901158581
0.00554312016301
0.00553865377009
0.0055353845302
0.00553362299131
0.00553259787481
0.00553260265405
0.00553420549333
0.00553832805044
0.00554228376964
0.00554940937141
0.00555577804752
0.0055599582474
0.00556194743807
0.00556231332982
0.00556182604422
0.00556026795458
0.00555787621877
0.00555501965295
0.00555070551268
0.00554496573638
0.00553832580199
0.00553363773487
0.00553113546014
0.00552956388129
0.00552902167703
0.00552886420741
0.00553000354433
0.00553215595738
0.00553642948859
0.00554109332992
0.00554444670495
0.00554644707403
0.0055474892509
0.00554753344175
0.00554695680837
0.005544966826
0.00554213280788
0.00553796219169
0.00553481640199
0.00553346543146
0.00553322360459
0.00553347674117
0.00553396980162
0.00553496734144
0.00553687302724
0.00553923803359
0.00554102826965
0.00554196471929
0.00554209199275
0.00554164032158
0.00554083559547
0.00553981870448
0.00553884583517
0.00553854413239
0.00553857571798
0.00553846714523
0.00553850551047
0.00553862308389
0.00553899548978
0.00553922282265
0.00553960003083
0.00553879763285
0.00553832895974
0.00554053216153
0.00554212135282
0.00554347798745
0.00554485238113
0.00554747646613
0.00555076456364
0.00555373814272
0.00555651952626
0.00555930166549
0.005561940408
0.00556458629636
0.0055671590963
0.00556975951511
0.00557247746091
0.00557531366352
0.00557808642225
0.00558074908495
0.00558319547366
0.00558511838198
0.0055868103562
0.00558901529967
0.00559151939343
0.00559329839066
0.00559436861321
0.00559610585057
0.00559817961315
0.00559999443643
0.00560204041722
0.00560400027814
0.0056056331043
0.00560692936031
0.00560767065609
0.00560790213911
0.0056078358447
0.00560725952538
0.00560631853351
0.00560543992689
0.00560448068664
0.00560309159998
0.00560153217501
0.00560015788209
0.00559924121349
0.0055985359594
0.00559765065877
0.00559607613775
0.00559430430268
0.00559260745952
0.0055897617799
0.0055856168362
0.00558098520767
0.00557579928006
0.00556969321379
0.00556248002941
0.00555603974623
0.00555057464363
0.00554681720703
0.00554412701265
0.005541844468
0.00553990708514
0.00553873547589
0.00553855470368
0.00553874923924
0.00553885196401
0.00553924961933
0.00554014515957
0.0055407668356
0.00554072243264
0.00554044883437
0.00554051005408
0.00554179290564
0.00554496428029
0.00555012730965
0.00555614766634
0.00556063810299
0.00556377886412
0.0055666096604
0.00557037668983
0.00557522668245
0.0055809476599
0.00558679220648
0.00559214484687
0.00559724192536
0.00560192489525
0.00560476955996
0.00560508048657
0.005604266584
0.005604906079
0.00560564151978
0.00560735793867
0.00560867655294
0.00560774583294
0.00560386834965
0.00559811945252
0.00559021160878
0.00558010382792
0.00556857702668
0.00556066758601
0.00555511687782
0.00555079968907
0.00554759173542
0.00554562556234
0.00554495664452
0.00554486746554
0.00554514624924
0.00554569147609
0.00554622565868
0.00554694715834
0.00554842713036
0.00555133044007
0.00555553446331
0.00556099979066
0.00556775574041
0.00557513473069
0.00558196204349
0.00558759993989
0.00559144400942
0.00559326743872
0.00559356030307
0.00559248425599
0.00559085657626
0.00558952421812
0.0055883705982
0.00558513871873
0.00558083697822
0.00557212837146
0.00555983977981
0.00555039045957
0.00554394666838
0.00553963763343
0.00553641217529
0.00553462891122
0.00553358052657
0.00553295523206
0.00553391893434
0.00553806058464
0.00554338826571
0.00555186698279
0.00555914184177
0.00556358602823
0.00556564894527
0.00556623767477
0.00556613351327
0.0055645516081
0.00556155643435
0.00555793625285
0.0055530375229
0.00554598184446
0.00553847136941
0.00553331983199
0.00553051903249
0.00552852517413
0.00552782637164
0.005527686773
0.00552897695543
0.00553115791823
0.00553581918516
0.00554112753454
0.00554478976013
0.00554697968474
0.00554820921618
0.00554841263959
0.00554794125772
0.00554586509155
0.00554306616341
0.00553849849478
0.00553468865993
0.00553266429554
0.00553204584033
0.00553236819543
0.00553318953292
0.0055345759273
0.00553688088526
0.00553951405464
0.00554154189343
0.00554265351807
0.0055428876191
0.00554250899511
0.00554187573203
0.00554101325689
0.00553991992529
0.00553912627716
0.00553859712031
0.0055381772393
0.00553826826629
0.00553844683889
0.00553895170162
0.0055393724657
0.00553993713133
0.00553904550826
0.00553814866952
0.00554044312999
0.00554231636256
0.00554394601275
0.00554545632845
0.00554800617808
0.00555136143512
0.00555422415145
0.00555736221541
0.00556062991884
0.00556385235353
0.00556725798472
0.00557068916272
0.00557407598773
0.00557734253922
0.00558054409132
0.00558372553159
0.0055867135809
0.00558958362123
0.00559240888645
0.00559499916397
0.00559742759451
0.00560024160469
0.00560265934448
0.00560389075148
0.00560526211906
0.00560715450926
0.00560903202214
0.00561090167448
0.00561246790353
0.00561392712077
0.00561534657661
0.0056165491937
0.00561750390709
0.00561872106964
0.00561949466936
0.0056192720297
0.00561798889045
0.00561591082836
0.00561373007048
0.00561147970189
0.00560932327762
0.00560746423959
0.00560588050703
0.00560422280515
0.00560207189063
0.00559978964381
0.00559800001548
0.00559608289006
0.00559320635912
0.0055893645301
0.00558426895007
0.00557709916932
0.00556837282157
0.00556012889463
0.00555288629397
0.00554734589491
0.00554397068818
0.00554171054324
0.00553999712492
0.00553887435191
0.00553790048003
0.00553699550039
0.00553598236354
0.00553542372511
0.00553603674969
0.00553798784617
0.00554047270755
0.00554219132993
0.00554259037574
0.00554246130182
0.00554355883091
0.00554747898586
0.00555405974611
0.00556101851826
0.00556642097332
0.005571008146
0.00557601732736
0.00558176613189
0.00558835512017
0.00559523050496
0.00560112866632
0.00560580406202
0.00561000782918
0.00561368405541
0.00561547535802
0.00561530033843
0.0056147999956
0.00561492595875
0.00561582507894
0.00561694120415
0.00561659847721
0.00561341821454
0.00560730833112
0.00559851559231
0.00558709017443
0.00557360735277
0.00556407105311
0.00555748991315
0.00555259733274
0.00554901673949
0.00554650052478
0.00554503680725
0.00554438776885
0.00554403095012
0.00554424709771
0.00554516595684
0.00554669942563
0.00554906049222
0.00555286726266
0.00555814648238
0.00556441983185
0.00557225677579
0.00558099597482
0.00558865798922
0.00559449515003
0.00559831879673
0.0056004097605
0.00560135983805
0.00560103848238
0.00560022734228
0.00559915862861
0.00559772185745
0.00559366524614
0.00558765591384
0.00557739390891
0.005563065635
0.00555179927605
0.00554402962759
0.00553895631048
0.00553568127656
0.00553431344705
0.00553401567733
0.00553404458139
0.00553497325457
0.00553898793021
0.00554473767772
0.00555362865723
0.00556129505186
0.00556587757982
0.00556811283377
0.00556921788631
0.00556990082467
0.00556899933585
0.00556609556188
0.00556198959608
0.00555629346359
0.00554795602714
0.00553898325709
0.00553285275258
0.00552937726614
0.00552696595107
0.00552628981802
0.00552642241308
0.00552813867506
0.00553089967247
0.0055363028718
0.00554239554327
0.00554674184176
0.00554914348129
0.00555038899631
0.00555061922072
0.00555024495833
0.00554798548938
0.0055450562484
0.00553988371412
0.00553525158218
0.00553251470007
0.00553101399544
0.005530944274
0.00553189449889
0.00553363211762
0.00553632582776
0.00553973778358
0.00554212530546
0.00554335373536
0.00554374015956
0.0055434233739
0.00554284068011
0.00554197243414
0.00554083806902
0.00553971377782
0.00553863342958
0.00553805360924
0.00553829984636
0.00553858565997
0.00553915195633
0.0055396173643
0.0055402301506
0.0055391192892
0.00553810359787
0.00554082879556
0.00554299701194
0.00554509136698
0.0055469914068
0.0055490967464
0.00555234223261
0.00555555563657
0.00555891657103
0.0055624129387
0.00556606048703
0.00556990139533
0.00557380349204
0.00557755022277
0.0055810623307
0.00558450088093
0.0055878202396
0.00559107001263
0.0055945215573
0.005598334756
0.00560182134245
0.00560486353164
0.00560846106588
0.00561173199585
0.00561346071718
0.00561498788809
0.00561657281212
0.0056178659173
0.00561912999239
0.0056203481476
0.00562144850907
0.00562254222807
0.00562345153508
0.0056241262622
0.00562490235667
0.00562624660341
0.00562777924955
0.0056288109778
0.00562846690736
0.00562650602483
0.00562314078104
0.00561988771864
0.00561695565356
0.00561408571856
0.00561110647741
0.00560825468827
0.00560516267678
0.00560194164561
0.00559905747866
0.00559649001248
0.00559373152152
0.00559013243643
0.0055845872273
0.00557615440805
0.00556633733857
0.00555742216204
0.00554976803439
0.00554357413142
0.00553911065829
0.00553646846834
0.00553558674157
0.0055358430498
0.00553597710628
0.00553510747183
0.00553349611921
0.00553275668152
0.00553371265016
0.00553650780089
0.0055402738551
0.00554365605864
0.0055450166264
0.00554554666171
0.00554709947785
0.00555189360017
0.00555941012774
0.0055672627051
0.00557500998941
0.00558258094714
0.00558930761026
0.00559598191278
0.00560302313292
0.00560935159281
0.00561409165417
0.00561794114015
0.00562160065914
0.00562416038166
0.00562502027686
0.00562458405352
0.00562401227007
0.00562382382304
0.00562404716072
0.00562362601046
0.0056210959099
0.00561524456593
0.00560653290568
0.00559432207355
0.00557920687064
0.00556795504176
0.00555997211212
0.00555415407538
0.00554996092951
0.00554669049587
0.00554447749082
0.00554338121092
0.00554249510496
0.00554280553259
0.00554430585037
0.00554694453036
0.0055506182423
0.00555533910801
0.00556116410169
0.00556808177193
0.00557701093918
0.00558725455371
0.00559587838395
0.00560205281685
0.00560566096948
0.00560736677939
0.00560851571404
0.0056088408705
0.00560888630593
0.00560801188504
0.00560603748256
0.00560118515142
0.00559371541163
0.0055821740564
0.00556627598168
0.00555384176552
0.00554498185644
0.00553881893706
0.00553442457155
0.00553284659998
0.00553331246008
0.00553464531986
0.00553671261718
0.0055406497823
0.00554624154203
0.00555523147459
0.00556319162735
0.00556812148806
0.00557072928595
0.0055721089232
0.00557310936078
0.00557288561448
0.00557032214147
0.00556615480613
0.00555983974055
0.0055503626775
0.00553980190167
0.00553236185097
0.00552807523983
0.00552526643016
0.00552488307649
0.00552558519081
0.00552801848067
0.00553115968731
0.00553727199759
0.00554428626155
0.00554886867915
0.00555133958437
0.00555250632779
0.00555270094878
0.00555244799512
0.00555012331063
0.00554709075074
0.0055414078839
0.00553613950604
0.00553295382743
0.00553082264879
0.00553024927262
0.00553061787969
0.00553256230447
0.00553564537729
0.00553965660229
0.00554252052381
0.0055439642805
0.00554446936465
0.00554420316621
0.00554364319459
0.00554256669676
0.00554120534247
0.00553984923319
0.00553842595163
0.00553791843857
0.00553841379197
0.00553882664083
0.00553943083569
0.00553978707243
0.00554029304482
0.00553890357656
0.00553794929521
0.00554115643762
0.00554419080886
0.00554700405972
0.00554947467722
0.00555211412693
0.00555504006935
0.00555820736886
0.00556171757692
0.00556568059884
0.0055696796588
0.00557350579737
0.005577192641
0.00558071346399
0.00558408982093
0.00558757806344
0.00559101782889
0.00559453272115
0.00559840433177
0.00560268827805
0.00560647833116
0.00561010199941
0.0056147684199
0.00561893255684
0.0056213404002
0.0056235951057
0.00562613779229
0.00562765170572
0.00562833828552
0.00562885246309
0.00562950511464
0.00563016243706
0.00563056458482
0.00563055904864
0.00563025598593
0.00562999898968
0.00563077058604
0.00563286517956
0.00563556166699
0.00563701381047
0.00563628360069
0.00563306494677
0.0056283019574
0.00562357390994
0.00561938059581
0.00561536491494
0.00561150997813
0.00560750955179
0.00560338741187
0.00559904688593
0.00559463856127
0.00559014218127
0.00558568781408
0.00557990996695
0.00557254682301
0.0055639820729
0.00555451030417
0.00554618542399
0.00553922293061
0.00553436742029
0.00553176576555
0.00553098330409
0.00553191636115
0.00553367545542
0.00553419758238
0.00553324551277
0.00553219246168
0.00553305067498
0.00553633877274
0.00554138633734
0.00554601297893
0.00554827161577
0.00554943274904
0.00555217281934
0.00555907656345
0.00556804585985
0.00557794784958
0.00558840115861
0.00559664759188
0.00560315578843
0.00560950347764
0.00561589385322
0.00562142830317
0.00562592617722
0.00562973865583
0.00563221831505
0.00563329035883
0.00563321370288
0.00563247222731
0.00563152775114
0.00563090586673
0.00563021105307
0.00562807959171
0.00562243201999
0.00561378209495
0.00560098266324
0.00558456636321
0.00557183804432
0.0055626185447
0.00555585099284
0.00555081406133
0.00554662961756
0.00554362222947
0.00554230906183
0.00554158261065
0.00554236757097
0.00554451421836
0.00554807563945
0.00555291348174
0.00555849818514
0.00556463291868
0.00557194459219
0.00558151377343
0.0055927011313
0.00560172643967
0.00560801434212
0.00561181167364
0.00561387408039
0.00561553715205
0.0056162513607
0.00561661183949
0.00561549011774
0.00561270278154
0.00560697867016
0.00559815222296
0.00558542268755
0.00556853204134
0.00555579147294
0.00554670095591
0.00553969628716
0.00553403810228
0.00553136398467
0.00553167772124
0.00553379046767
0.00553702978376
0.00554162019157
0.00554727964412
0.00555651871297
0.00556510742055
0.00557073642374
0.00557384013913
0.00557535449813
0.00557634434572
0.00557649449782
0.00557435832928
0.00557011084804
0.00556314991475
0.0055526424426
0.00554084850023
0.0055323315848
0.00552713405016
0.00552391261574
0.00552370955811
0.00552471603058
0.00552761310126
0.00553117360529
0.00553782146922
0.00554559990681
0.00555074855692
0.00555324299107
0.00555414797982
0.00555416835704
0.00555393234111
0.0055519653789
0.00554852843622
0.00554251879368
0.00553690864594
0.00553353024841
0.00553108524119
0.00553032652283
0.00553031794959
0.00553191754766
0.0055350715557
0.00553950421196
0.00554280720625
0.0055445252743
0.00554520865815
0.00554495744969
0.00554435177853
0.00554315437688
0.00554160625507
0.00553996465501
0.00553836097271
0.00553790516298
0.00553862650115
0.00553916360952
0.00553980112242
0.00553997490869
0.00554038425138
0.00553875649284
0.00553744878824
0.00554118681586
0.00554509725331
0.00554880127792
0.00555206998081
0.00555532350911
0.00555849955827
0.00556166099356
0.00556489891913
0.00556901977064
0.00557371065413
0.00557786197256
0.00558144767196
0.00558460371449
0.00558765946373
0.00559105140842
0.00559455130651
0.00559814398732
0.0056023019273
0.00560668973406
0.00561034498152
0.00561419976675
0.0056192511918
0.00562338766191
0.00562583557577