/*--------------------------------*- C++ -*----------------------------------*\
  =========                 |
  \\      /  F ield         | OpenFOAM: The Open Source CFD Toolbox
   \\    /   O peration     | Website:  https://openfoam.org
    \\  /    A nd           | Version:  8
     \\/     M anipulation  |
\*---------------------------------------------------------------------------*/
FoamFile
{
    version     2.0;
    format      ascii;
    class       volScalarField;
    location    "0.000332";
    object      O2;
}
// * * * * * * * * * * * * * * * * * * * * * * * * * * * * * * * * * * * * * //

dimensions      [0 0 0 0 0 0 0];

internalField   nonuniform List<scalar> 
22800
(
7.35952411675e-126
1.52652643904e-123
8.55407155801e-122
3.89157817535e-120
3.80683175577e-118
4.00538217061e-116
2.92484154672e-114
1.6339320677e-112
1.40756544927e-110
8.6679370016e-109
4.7669637664e-107
1.75711448712e-105
5.28726404895e-104
4.74294385855e-102
9.99812508058e-101
4.11461262569e-99
1.80963661658e-97
9.58561076939e-96
1.45586307865e-94
6.26119476005e-93
3.17556467661e-91
1.51883560101e-89
4.4369049762e-88
1.18571889288e-86
1.93912144035e-85
1.98503074325e-84
2.59538693107e-83
6.47320704317e-82
1.93434452321e-80
5.47395539911e-79
1.63602705137e-77
2.47681411469e-76
3.97464228039e-75
3.07371418995e-74
2.63902795639e-73
2.00910543824e-72
1.54457169588e-71
9.84634470356e-71
4.07833659307e-70
4.31746201657e-69
2.18625174816e-68
1.48452882548e-67
7.54779423705e-67
5.87252612158e-66
2.87239239923e-65
7.67790539965e-65
4.06827129633e-64
8.45740412738e-64
2.31435202891e-63
4.9063435626e-63
1.52993822796e-62
2.90570984499e-62
5.35546749577e-62
8.82408529453e-62
1.47798559759e-61
1.62620278598e-61
1.70800345459e-61
1.35027916102e-61
1.1416656853e-61
6.83091625258e-62
4.56764270112e-62
2.11301774703e-62
1.01044835462e-62
4.0886335069e-63
1.71462611973e-63
7.07417246517e-64
1.73367118129e-64
5.99681776556e-65
1.34287984986e-65
2.6734791078e-66
7.65357988513e-67
1.35271727342e-67
4.51883175609e-68
3.40613005467e-67
2.37922237359e-66
4.77151808774e-65
1.74700888688e-63
1.15458880181e-61
5.30710963274e-60
3.02439450538e-58
1.57417237055e-56
2.05993277214e-55
4.40971131969e-54
4.69978603391e-53
1.04459959572e-51
1.30026725937e-50
6.29738002276e-50
2.53015224734e-49
1.60023590166e-48
4.57121573847e-48
9.8116039564e-48
2.3830056409e-47
5.01760523463e-47
5.68920053785e-47
5.46055727863e-47
4.99343102895e-47
4.05009449841e-47
2.76496992209e-47
1.44185594987e-47
6.81660971855e-48
2.73415638215e-48
8.45564918414e-49
3.14863825294e-49
1.15778143526e-49
4.33317043688e-50
4.71937524309e-50
8.65445194925e-50
5.60521403741e-49
8.55384685076e-48
1.23691382252e-46
7.34651823233e-46
7.63272710041e-45
1.8351998327e-43
7.99559594752e-43
5.15035904197e-42
2.47957879653e-41
1.34110969788e-40
8.79564825992e-40
2.6673320727e-39
8.3004817575e-39
1.44677983099e-38
3.49520213112e-38
4.89408773866e-38
6.15500078543e-38
5.59257837164e-38
5.54284494229e-38
4.74037005416e-38
2.58487983552e-38
1.53317040965e-38
5.33581669508e-39
2.36562940489e-39
9.63037659423e-40
3.77509907847e-40
1.07348706534e-40
6.21358944741e-41
2.78721296728e-40
7.85127079395e-40
3.84390097392e-39
8.02179322218e-38
3.60094573893e-37
1.66391475629e-36
4.37763346598e-36
1.09289753482e-35
3.32601241602e-35
5.17363724453e-35
7.94750994308e-35
1.30591550177e-34
2.9680088824e-34
5.00756823566e-34
8.6028285924e-34
4.29111642428e-33
9.96969015783e-33
8.91422038832e-32
4.60650469574e-31
1.81779252204e-30
8.53131906845e-30
2.83512248707e-29
9.14148768602e-29
3.4450371156e-28
9.80830526743e-28
1.97056413539e-27
3.12854487038e-27
4.23640887801e-27
4.7101169313e-27
4.53086811841e-27
4.05582436141e-27
3.15699068398e-27
1.4907224181e-27
8.85366631812e-28
5.11991508522e-28
2.96850288052e-28
1.43841275298e-28
6.58156305387e-29
2.51605357541e-29
1.04484981429e-29
2.84575139065e-30
1.29499692396e-30
1.29999001342e-30
3.19066215323e-30
1.99178045573e-29
9.28847471142e-29
6.93150440792e-28
3.8850460935e-27
2.24161535932e-26
7.20323382124e-26
3.15331442857e-25
1.59545302845e-24
4.79124215385e-24
9.54867541892e-24
1.81730970601e-23
4.33413929833e-123
2.71820864517e-121
1.20726500674e-119
6.63303801962e-118
4.65904643094e-116
3.71914894542e-114
1.73822458974e-112
1.17494354853e-110
9.71017311483e-109
7.30468874849e-107
4.32623534814e-105
1.11366777947e-103
7.0667575658e-102
7.28097007002e-100
1.85374395748e-98
2.70867122982e-97
3.49264472239e-96
1.97949158187e-94
1.3540625655e-92
6.39436272205e-91
3.1658063489e-89
6.40672382293e-88
2.67675113624e-86
6.69755057537e-85
8.38350941108e-84
1.86998198187e-82
3.32477781099e-81
4.9034071453e-80
1.30252412773e-78
3.52123814284e-77
7.45117242491e-76
5.80193706893e-75
1.12514127976e-73
6.85223002699e-73
8.56224668788e-72
8.82148988355e-71
7.05458470509e-70
4.84388116938e-69
2.35729183648e-68
1.80134702291e-67
1.07704273327e-66
6.33782157076e-66
2.91413732483e-65
1.66176638713e-64
1.07279493527e-63
3.66131980986e-63
1.24338193524e-62
2.82724707484e-62
9.18026620979e-62
2.41611808574e-61
7.97478309428e-61
1.59169923712e-60
2.05354243366e-60
4.01436863781e-60
6.36356707075e-60
6.41475622523e-60
6.78591921406e-60
7.58076268407e-60
5.10993506933e-60
2.79493976098e-60
2.05050867412e-60
1.03171495935e-60
4.82267441631e-61
2.0875763244e-61
1.06682025222e-61
3.8325209811e-62
1.08608539283e-62
3.13770180728e-63
9.07625881066e-64
2.40104662667e-64
6.35428512242e-65
1.49492445469e-65
3.5478746077e-66
5.37568381801e-66
2.73875364167e-64
9.19814015812e-63
2.16661599506e-61
1.47872738398e-59
6.25143944561e-58
1.26461855542e-56
7.21051273494e-55
1.00289905147e-53
8.84821990141e-53
8.57302637795e-52
1.87824116433e-50
3.87695779714e-49
2.34267572762e-48
7.64991501038e-48
4.97486038976e-47
1.36308641821e-46
2.81544281943e-46
1.02781018429e-45
1.84756080845e-45
2.09742632478e-45
2.08649437796e-45
1.7354607048e-45
1.33227158578e-45
8.4967254856e-46
3.67161386719e-46
1.97539658861e-46
9.68405552921e-47
2.35707909184e-47
8.89437548674e-48
3.37554815403e-48
1.37485968352e-48
1.39000859947e-48
3.94017063031e-48
2.09928585906e-47
2.31020626588e-46
2.78427391512e-45
1.36737069389e-44
1.27693769899e-43
2.71906252887e-42
2.41181588556e-41
1.48614567962e-40
8.61047605017e-40
3.39612357259e-39
9.05743647286e-39
3.54487203046e-38
1.25808658428e-37
2.57146619229e-37
4.69922218531e-37
6.0999130919e-37
9.76263011691e-37
9.96675006151e-37
8.52278410704e-37
7.13655848642e-37
4.30821506525e-37
2.29764381745e-37
9.77392442982e-38
4.4304723465e-38
1.9481779212e-38
7.02231474948e-39
2.48133964594e-39
1.20374065799e-39
5.34584916054e-39
3.00193822338e-38
5.92624230889e-38
3.41662790757e-37
8.51780519363e-36
2.32542335346e-35
1.04527093617e-34
1.94943085726e-34
6.56550060235e-34
1.16461825876e-33
1.85265886032e-33
2.71300478676e-33
4.62820344801e-33
7.65381114215e-33
1.58015342119e-32
5.60482973787e-32
5.27247118656e-31
1.40371424248e-30
8.98270209958e-30
3.7257934192e-29
2.000044617e-28
7.93729457471e-28
1.93224125299e-27
6.378469616e-27
9.94488422072e-27
2.26168689446e-26
3.88873221096e-26
5.50028689353e-26
6.25055186912e-26
6.10844367188e-26
5.04358891579e-26
3.6038964377e-26
2.28219074677e-26
1.3128842882e-26
7.06479939444e-27
3.7122123666e-27
1.46550031822e-27
7.3240245075e-28
2.64817198478e-28
1.20222986122e-28
4.82051303765e-29
1.90792583704e-29
1.14328999599e-29
1.69191071253e-29
1.86659593709e-28
1.69151967003e-27
1.23220146252e-26
4.01156850511e-26
3.37745030668e-25
2.25125973291e-24
1.09931601008e-23
3.36461942369e-23
8.92997538302e-23
1.67415294612e-22
2.8312360988e-22
4.37540935817e-121
3.04529142738e-119
2.14408353757e-117
5.26148594821e-116
3.29427816437e-114
2.06718436453e-112
1.13861577519e-110
4.15777799169e-109
1.53888200068e-107
6.99430722725e-106
7.54462390335e-104
8.35254347579e-102
3.20494126273e-100
1.07882851373e-98
8.0564861345e-97
1.53666341669e-95
1.04825685935e-93
5.5770393588e-92
2.02089207382e-90
9.56190600856e-89
1.86129340201e-87
3.33145500143e-86
9.36907771182e-85
1.62544848419e-83
3.48188322182e-82
7.11249783375e-81
1.71351383797e-79
2.68093271577e-78
4.91766070861e-77
1.61893183235e-75
1.81303661467e-74
1.03424071419e-73
2.42506715627e-72
2.90299218524e-71
1.91050225186e-70
2.64536119393e-69
2.50615247609e-68
1.50214890575e-67
1.2875995872e-66
9.65669531795e-66
4.37862486704e-65
2.11389769025e-64
1.42957848421e-63
6.42616997706e-63
3.7527248902e-62
9.51631173245e-62
4.59330621676e-61
1.18458760311e-60
3.5279326779e-60
1.18980885197e-59
2.65784708346e-59
5.41471377754e-59
6.66350350833e-59
1.47946482372e-58
2.79377398774e-58
4.01793999503e-58
4.01892036175e-58
3.55652083848e-58
2.75968874926e-58
1.96291988633e-58
9.93929821089e-59
4.80898606666e-59
2.46158846595e-59
1.22820547236e-59
5.84689987782e-60
1.97375416201e-60
5.44737072661e-61
1.54415315889e-61
5.06416999343e-62
8.77308002204e-63
2.34291565303e-63
4.89265545706e-64
1.49249857618e-64
3.5164597051e-64
1.44254698876e-62
1.05740112308e-60
3.17809510978e-59
3.15050090057e-58
1.57174635016e-56
1.39555510169e-54
1.7889195841e-53
3.30150465541e-52
3.87665231009e-51
7.16783534958e-50
1.47282460361e-48
2.46087565239e-47
1.22691606921e-46
2.68143215402e-46
1.58409393634e-45
3.95356343333e-45
1.00768935511e-44
2.97244941262e-44
4.0863952277e-44
4.44645687614e-44
4.38160575938e-44
3.57689908331e-44
2.74231768533e-44
1.93818989937e-44
9.94296204958e-45
5.23793000549e-45
2.37521362885e-45
8.99105926295e-46
3.25185140337e-46
1.12639102039e-46
4.53515659724e-47
3.21693374925e-47
4.80875887315e-47
4.03800501617e-46
3.99185578828e-45
2.79249878568e-44
1.07529788358e-43
1.6465998812e-42
9.04241105396e-42
2.72161610291e-40
6.03645927292e-40
1.14092296912e-38
2.57775965804e-38
1.75578413059e-37
6.05317114621e-37
1.84887799643e-36
3.29381545808e-36
6.7758623e-36
9.92574212378e-36
1.45826811828e-35
1.58422034216e-35
1.43755748281e-35
1.14185005811e-35
6.7361997614e-36
3.83714365842e-36
1.6235909884e-36
6.57438486264e-37
2.52719051987e-37
9.75407469612e-38
2.83391760532e-38
1.11709285804e-38
2.42521990441e-38
2.09576948436e-37
2.06510737939e-36
2.04139954248e-35
9.43637526381e-35
5.00791396736e-34
1.60186349396e-33
4.92896874116e-33
9.87375250573e-33
1.90520485382e-32
2.97748515584e-32
3.83968965118e-32
5.45817595649e-32
9.96085968283e-32
2.40771494897e-31
8.36652652885e-31
2.77897479896e-30
2.2481123344e-29
9.11848906373e-29
3.68172494791e-28
1.56880113233e-27
4.94958525628e-27
1.79592484267e-26
6.95000207114e-26
1.48647242704e-25
2.76368718456e-25
4.19642492089e-25
7.37507505152e-25
8.54413889473e-25
8.71469203146e-25
7.28238384818e-25
4.76655728471e-25
2.7965836334e-25
1.60770584628e-25
9.55494381367e-26
5.2067642549e-26
1.74547388434e-26
8.21238161889e-27
3.64743912688e-27
1.52158565162e-27
6.15494840666e-28
2.38494906346e-28
1.4292770872e-28
4.46698242915e-28
1.35934796721e-27
4.47136651769e-27
6.78255349769e-26
5.33943684689e-25
9.1164803329e-24
2.98640368039e-23
1.68219533363e-22
5.02531014561e-22
1.20907566407e-21
2.92376330356e-21
4.38184491376e-21
4.95203795773e-120
9.78245613798e-118
3.91382961898e-116
3.17304372514e-114
1.20177172105e-112
1.07627386275e-110
6.87748249686e-109
5.05870559372e-107
2.69491618528e-105
8.35254482434e-104
5.16755332279e-102
4.16835615635e-100
9.5323289813e-99
6.25924799773e-97
6.23270187373e-95
1.82528629575e-93
2.43762441535e-92
6.72585415479e-91
2.88755659698e-89
9.9666645746e-88
3.86875839076e-86
1.27391966725e-84
1.59980467956e-83
5.74063321329e-82
1.47055613643e-80
2.25642483576e-79
3.69098822065e-78
5.55247421392e-77
1.36547944968e-75
3.3302622256e-74
3.34568110291e-73
2.54614816805e-72
7.00618646644e-71
4.70503087864e-70
4.40611271023e-69
6.80547264352e-68
5.93096591806e-67
3.47948844995e-66
4.25509598579e-65
3.31379035846e-64
1.51634354358e-63
1.07788320336e-62
4.54725381576e-62
2.95586307622e-61
1.36088744717e-60
4.69830550591e-60
1.08174653757e-59
4.37740391591e-59
1.03944348459e-58
3.78010253747e-58
9.38765325796e-58
1.83745296119e-57
2.49663537812e-57
5.77260280431e-57
1.12905892946e-56
1.55874708506e-56
1.48955897017e-56
1.37449924279e-56
1.11270883459e-56
7.53329981248e-57
4.15336882241e-57
2.29470785156e-57
1.07599371913e-57
5.18677784605e-58
2.5421371081e-58
8.47174848916e-59
2.53107617954e-59
6.90300917982e-60
2.07131359573e-60
5.80449951364e-61
1.57394317093e-61
4.02980518037e-62
1.44269568429e-62
5.31514045118e-62
1.21728988101e-60
9.92349092969e-59
2.19636737337e-57
7.42483629139e-56
3.05084238862e-54
2.70740441041e-53
1.05009447662e-51
2.10112100787e-50
4.40311087306e-49
6.88780367702e-48
6.52248452917e-47
6.93007126777e-46
3.45518196287e-45
1.18572500798e-44
4.34020572598e-44
1.50266725251e-43
2.52149513703e-43
7.14890717051e-43
8.20209031772e-43
8.20845349487e-43
8.26920795885e-43
6.7058175296e-43
5.70057151909e-43
3.99149477866e-43
2.19315208124e-43
1.29401405211e-43
5.9303161249e-44
2.3504492128e-44
8.43947411146e-45
2.9185445106e-45
1.23272465156e-45
1.29038312356e-45
3.96349870598e-45
2.47478882279e-44
1.12555778546e-43
2.19704618723e-43
4.67767828945e-42
4.89671621465e-41
4.76787470253e-40
1.22040757672e-39
2.15977491418e-38
8.00764136209e-38
6.79078258073e-37
1.50584990168e-36
5.88726978918e-36
2.34200327529e-35
5.01125840667e-35
1.09406888224e-34
1.55178268496e-34
2.38292497524e-34
2.41720260194e-34
2.20562181202e-34
1.7489275588e-34
1.28677952801e-34
5.76621534277e-35
2.14586510748e-35
9.95507253442e-36
4.28558642568e-36
1.58016151437e-36
4.85784770842e-37
2.05771340652e-37
5.69087339966e-37
9.98556921272e-36
2.20797602486e-35
4.66564206782e-34
9.73586173422e-34
6.25448535081e-33
2.3898192618e-32
5.92744964751e-32
1.88799819857e-31
3.69422166429e-31
5.12015190602e-31
6.14855781037e-31
7.50028381642e-31
9.46220405306e-31
3.97477880689e-30
9.76083221363e-30
4.97415427534e-29
2.56482380748e-28
4.53886361889e-28
2.10409684958e-27
9.65741955148e-27
3.96811544572e-26
1.93784966969e-25
8.46237802359e-25
2.00398341032e-24
5.15413955934e-24
7.74274263421e-24
1.32028473847e-23
1.58211471132e-23
1.54923448494e-23
1.44301605725e-23
1.01425340143e-23
4.39111584696e-24
2.13136041188e-24
1.292615713e-24
6.32506500099e-25
3.48513618208e-25
1.48920154899e-25
4.46922278084e-26
1.63897602426e-26
6.72385978455e-27
2.80268116062e-27
1.33242143905e-27
1.32347373853e-27
6.2269626605e-27
7.21067051058e-26
3.19406913847e-24
9.11008832843e-24
8.94573597465e-23
3.53717606805e-22
2.23471699194e-21
6.96772887064e-21
2.22157910308e-20
4.15810812738e-20
5.99141519493e-20
6.49863294385e-118
1.21230728162e-115
1.29281784371e-113
4.75909709143e-112
2.55465740732e-110
2.36246214151e-108
8.95231600195e-107
6.55416217431e-105
2.53235986634e-103
1.00764453137e-101
9.76415668801e-100
3.7790275984e-98
1.79643624968e-96
1.05488889155e-94
2.07698030627e-93
1.65717031119e-91
5.10907798777e-90
8.92624622852e-89
6.64352700759e-87
1.48961638045e-85
3.17777714932e-84
5.04592262467e-83
8.36993249454e-82
2.06115600911e-80
1.96496058461e-79
8.80310226045e-78
1.43019058353e-76
2.76387014449e-75
3.69255192457e-74
1.38642208488e-72
6.71227382267e-72
7.02095213878e-71
1.68298338128e-69
1.72330806498e-68
2.29275174651e-67
1.94542364951e-66
1.20969448359e-65
1.02068550773e-64
1.75949562176e-63
1.39065317718e-62
4.44174643825e-62
3.78750321435e-61
1.87051374259e-60
1.14767000157e-59
3.65043111821e-59
1.77960061913e-58
3.57523575488e-58
1.34848434697e-57
4.07979568316e-57
1.16174536571e-56
3.28659437541e-56
5.6756739725e-56
1.3576939816e-55
2.30909454526e-55
3.91761643905e-55
5.15947763382e-55
4.90799161863e-55
5.00837637321e-55
3.65645396862e-55
2.67847142597e-55
1.4864002354e-55
7.88942694558e-56
3.9009961536e-56
1.91014389246e-56
1.04295679517e-56
3.16271631613e-57
1.23008970405e-57
2.90975871904e-58
8.85174546667e-59
2.22638140201e-59
6.61412746094e-60
1.60993813761e-60
6.43867958929e-61
3.15678326424e-60
1.10879610998e-58
4.2855333651e-57
3.78752072171e-56
1.88902827901e-54
4.2959925e-53
1.49350285527e-51
6.21214270902e-50
6.67918388441e-49
6.10792436923e-48
1.44114574314e-46
1.08762791249e-45
1.81466412724e-44
8.41583412569e-44
4.65826209474e-43
1.11419555953e-42
3.41202556559e-42
7.8843173248e-42
1.84555019377e-41
2.11397745831e-41
2.19409085166e-41
2.05297289533e-41
1.94660647158e-41
1.70576231393e-41
8.64766552317e-42
5.77510850288e-42
3.74882658661e-42
1.32280299836e-42
5.63963594537e-43
2.26903443153e-43
8.86593778423e-44
3.6581021781e-44
2.16148026563e-44
3.38345384355e-44
2.11349840236e-43
5.82907063785e-43
8.13501586961e-42
8.00150161126e-41
9.13737968386e-40
1.67691653526e-39
6.65892326007e-39
2.37884387352e-37
1.55865825222e-36
6.11636765522e-36
2.71728157714e-35
1.15025523589e-34
2.60455210776e-34
7.63839749923e-34
1.68606551202e-33
2.07992114619e-33
3.23758320342e-33
3.47985689881e-33
3.28625074063e-33
2.65478827962e-33
1.46622160841e-33
6.29111455833e-34
3.25596909806e-34
1.20052799518e-34
5.03050407965e-35
2.14052062325e-35
6.13722220937e-36
1.97639815233e-36
7.15914067392e-36
5.32140030527e-35
3.35461628609e-34
6.72795941773e-33
1.67211334789e-32
7.64624319962e-32
4.57035877232e-31
1.0657798873e-30
3.35589837284e-30
7.19385760409e-30
1.04767556075e-29
1.11987206307e-29
1.1277846927e-29
1.16485954942e-29
1.47602194331e-29
7.74050996694e-29
3.48134971765e-28
2.43156407422e-27
4.98326428669e-27
1.86216939486e-26
1.50382619205e-25
5.19557878492e-25
1.33117763001e-24
5.36131840993e-24
3.00602995291e-23
6.26725291941e-23
1.43178737598e-22
2.87461355976e-22
3.45668580497e-22
3.33355193975e-22
2.90489711823e-22
1.93452265514e-22
9.81101124942e-23
3.23240450412e-23
1.70205587481e-23
9.77360742899e-24
4.07216578539e-24
1.28781762891e-24
4.14892911788e-25
1.12689250152e-25
5.15994790685e-26
1.59240931783e-26
9.93657843736e-27
2.01736976309e-26
2.49346527547e-25
1.6356370284e-24
1.65068399275e-23
1.94400412376e-22
2.77845170899e-21
8.19263622947e-21
2.3741660472e-20
1.25930129167e-19
2.73438001198e-19
6.005902833e-19
8.10287465933e-19
3.68660813546e-116
5.77877184512e-114
2.56513310154e-112
1.26109383867e-110
6.15934340967e-109
3.51397735649e-107
1.3647360844e-105
5.4188520468e-104
3.77841978514e-102
3.34459289731e-100
2.38368215327e-98
1.00079949897e-96
2.8795966675e-95
1.82961511233e-93
6.32879950319e-92
1.77591395367e-90
1.21604507428e-88
2.48800621859e-87
9.9121540821e-86
5.8949062834e-84
1.03585104154e-82
2.25884631467e-81
2.71142017692e-80
9.99991637714e-79
1.61909795795e-77
2.61442857204e-76
4.06869967585e-75
3.87392220111e-74
9.97650156376e-73
3.2295291828e-71
2.29084644164e-70
3.23798278644e-69
7.26396709492e-68
7.18345918231e-67
3.80346860924e-66
5.05355151379e-65
3.00180421655e-64
2.45029288091e-63
5.88316348197e-62
3.89112926021e-61
1.87929726811e-60
1.93081132232e-59
7.73202228202e-59
3.76276675306e-58
1.10468907008e-57
3.98495193173e-57
1.14494833981e-56
4.81869673953e-56
1.45007523828e-55
2.85011767201e-55
8.76679420273e-55
1.55482643746e-54
3.92623818307e-54
6.8680882046e-54
1.21291700284e-53
1.80114165211e-53
1.57614840426e-53
1.76073091332e-53
1.64729235156e-53
1.28149015012e-53
7.01245527223e-54
3.87975309426e-54
1.92796433845e-54
9.24947188179e-55
4.19226625585e-55
1.77048679871e-55
6.18323905279e-56
2.18701891251e-56
4.0657596928e-57
1.39186848378e-57
2.52557646165e-58
6.81232650751e-59
3.04558903109e-59
3.60446102757e-58
8.34042456231e-57
1.41517122922e-55
5.96697745521e-54
1.05043807178e-52
3.91204064575e-51
7.9719049442e-50
1.7848038348e-48
5.72495348026e-47
6.95078681806e-46
6.45543390693e-45
3.09768651086e-44
4.46264553001e-43
2.46405026462e-42
1.3856466417e-41
2.94219703582e-41
9.46551266512e-41
2.05208932896e-40
3.68046090895e-40
4.52229748339e-40
6.36103645711e-40
5.95434879804e-40
4.46224126069e-40
3.28108717309e-40
2.31647705414e-40
1.25371235195e-40
7.40766241666e-41
3.17048688528e-41
1.33517834219e-41
5.21909569322e-42
2.26221849066e-42
8.67390364877e-43
6.070535194e-43
1.38213717482e-42
5.45496696145e-42
3.04113440862e-41
1.5903721152e-40
1.50742272588e-39
7.29431529178e-39
4.67458315599e-38
3.99138224263e-37
1.43407600558e-36
1.54425708849e-35
4.3276078012e-35
2.45561664266e-34
1.48226864157e-33
3.6034474843e-33
1.08435291249e-32
2.08054163316e-32
3.17828637292e-32
4.26865052685e-32
4.6519659323e-32
4.06664141709e-32
3.20077815638e-32
1.64860740954e-32
1.02619003657e-32
4.19885361055e-33
1.82354088912e-33
7.23976591552e-34
2.66700870582e-34
1.00960934659e-34
3.2391607582e-35
1.05656998222e-34
4.50212636218e-34
3.1353974661e-33
1.27556207016e-31
6.2453035175e-31
1.95110878249e-30
9.77112559805e-30
2.5508823004e-29
7.26049329447e-29
1.59219467489e-28
2.4001950229e-28
2.68206480894e-28
2.55945295141e-28
2.23339290931e-28
2.34002619392e-28
8.2396489656e-28
2.88427411444e-27
5.92866546884e-27
1.86574220327e-26
3.85372883365e-26
2.33018079593e-25
2.81809949395e-24
1.98234291634e-23
9.95395125119e-23
4.35600005987e-22
1.10962966963e-21
2.43726935448e-21
5.08752726902e-21
6.21406821596e-21
5.92903484503e-21
4.68039308092e-21
3.33838682792e-21
1.42643789039e-21
4.72462937692e-22
2.54576449592e-22
1.05549615068e-22
5.7770152642e-23
2.91647774923e-23
9.59319748956e-24
4.26192551689e-24
1.14217075816e-24
4.29697627391e-25
1.85054199318e-25
2.20906140191e-25
2.09914522529e-23
4.86520966153e-23
2.17641485383e-22
1.6130081894e-21
3.17924836967e-20
1.43313278835e-19
3.3213952757e-19
1.89818357798e-18
6.005365989e-18
1.32941636171e-17
1.68757216025e-17
1.81735929068e-114
3.59477908703e-112
1.4134602247e-110
1.14913167008e-108
5.48126053248e-107
2.47867423073e-105
1.12234070258e-103
3.56899271217e-102
2.03727221577e-100
7.47033756826e-99
3.49445982941e-97
1.96672558952e-95
9.39149059597e-94
4.05057012576e-92
1.37953348356e-90
5.75215926599e-89
2.99950295721e-87
1.66948323761e-85
6.32784509013e-84
9.3345544593e-83
3.06052308058e-81
1.25549600102e-79
2.17550660149e-78
3.29832465215e-77
6.13862647426e-76
5.20492302121e-75
1.2174347744e-73
1.60917864657e-72
4.32795909515e-71
6.27360868475e-70
1.12508857577e-68
1.27665366546e-67
2.27981433907e-66
9.46753958265e-66
1.39859477579e-64
1.16070892271e-63
1.33648477346e-62
8.66215373099e-62
1.33586686085e-60
7.87698778152e-60
4.38824179169e-59
3.36203288187e-58
2.24397814745e-57
9.78857899543e-57
4.60669218733e-56
1.15466755007e-55
3.73861006351e-55
1.53322237045e-54
3.75360241737e-54
7.71485339825e-54
1.84161836812e-53
3.09746658531e-53
1.08893371084e-52
1.74039376743e-52
3.52604396726e-52
5.70956320692e-52
6.96590082532e-52
6.56882223362e-52
5.27968961608e-52
4.08600567451e-52
2.74497196636e-52
1.75981917716e-52
1.03757756657e-52
4.59926326448e-53
1.93254202292e-53
7.13548017914e-54
2.93177521066e-54
9.05667637764e-55
2.89701032845e-55
8.50011409257e-56
2.45989984779e-56
4.63762186603e-57
1.67727045119e-57
9.19770504207e-57
2.10267785231e-55
8.74779383362e-54
3.37087849534e-52
9.5238579153e-51
9.42462536901e-49
6.6076534492e-48
5.93268147927e-47
1.56961247927e-45
1.74205972949e-44
2.37516969236e-43
1.01255401389e-42
1.08847470668e-41
8.08638450843e-41
3.42905474882e-40
7.3651535263e-40
2.35173554803e-39
3.80614057645e-39
7.37125989629e-39
9.64032778827e-39
1.35202271824e-38
1.22269435817e-38
8.74551768449e-39
5.94345902267e-39
4.00395992186e-39
2.17242454603e-39
1.26972727759e-39
6.21093324517e-40
2.89839806473e-40
1.11106755804e-40
4.66157669981e-41
1.95481879455e-41
1.92152683843e-41
2.49132442131e-41
9.93240974213e-41
5.43727109927e-40
4.54598925391e-39
1.86990679246e-38
1.93048408505e-37
1.43153341072e-36
4.94649261769e-36
5.03888096865e-35
2.22241370319e-34
8.7642685641e-34
5.64391941828e-33
2.00019065951e-32
3.58541090266e-32
1.04614822466e-31
3.12848838319e-31
4.51363451097e-31
5.15354480816e-31
5.2737369945e-31
4.54526173408e-31
3.5572963089e-31
1.78502890983e-31
1.12693240411e-31
5.12336572176e-32
1.92367392093e-32
6.59830679539e-33
2.69027048239e-33
1.0548165613e-33
6.16250943261e-34
2.47146761454e-33
1.50579940317e-32
8.81141128923e-32
1.55887805871e-30
4.99615627516e-30
5.00489898513e-29
1.9278912798e-28
6.35364091176e-28
1.50804664178e-27
3.08675330128e-27
6.3844710472e-27
7.07377742494e-27
6.70433021249e-27
4.55802638029e-27
2.98499108144e-27
2.2309852212e-27
3.21666782815e-27
8.58984047856e-27
5.08337422461e-26
4.3533931739e-25
4.206243001e-24
4.86937977956e-23
4.15905946176e-22
2.04313040583e-21
8.119205158e-21
2.01035251609e-20
3.71352073943e-20
5.16554570072e-20
6.02135254341e-20
5.42195198145e-20
4.27730510021e-20
3.27330843801e-20
1.7887848739e-20
9.71833514442e-21
5.40689973228e-21
2.32049132445e-21
8.37221423035e-22
2.46681969109e-22
7.12077287724e-23
2.05600568733e-23
7.96473926133e-24
3.1056838149e-24
1.7324525543e-24
3.62147805547e-24
1.99664467216e-22
1.13058680025e-21
1.263208967e-20
8.82594193581e-20
4.58481978328e-19
1.8186290998e-18
9.15233547538e-18
3.59450266864e-17
9.54604639987e-17
2.10427844075e-16
2.58240921243e-16
5.02567558813e-112
2.77151554138e-110
1.0879791427e-108
6.94039630692e-107
3.51259438217e-105
1.47988474973e-103
1.05792192689e-101
3.46588272874e-100
2.22013837697e-98
1.19507226912e-96
3.61297269851e-95
1.56753234957e-93
2.21538921464e-92
1.01353553121e-90
4.46432488138e-89
2.03324551971e-87
6.95176703466e-86
4.73645740699e-84
7.82452150675e-83
4.41726374511e-81
1.60541612009e-79
3.20495447867e-78
6.53697906653e-77
1.21518374145e-75
1.86656272136e-74
3.58621038364e-73
5.00448256182e-72
5.29632961444e-71
1.08245910671e-69
1.73322221491e-68
4.95535721061e-67
4.94308556971e-66
5.98634924311e-65
3.03317214837e-64
6.47630119622e-63
4.69274120511e-62
4.2296786468e-61
2.89703690499e-60
3.56898823225e-59
2.16626246642e-58
1.36044656614e-57
1.1348021579e-56
4.84045171435e-56
2.23644160473e-55
1.04169143994e-54
3.74228339015e-54
1.19224815205e-53
4.61163466461e-53
1.27996080084e-52
2.39831901605e-52
4.80375117125e-52
1.25019479719e-51
2.78347358562e-51
5.58848700296e-51
1.11755413673e-50
1.72140221234e-50
1.97647075847e-50
1.81863619167e-50
1.57109417379e-50
1.2810317421e-50
9.16156608372e-51
5.41258479726e-51
3.08582511346e-51
1.69102934386e-51
7.96097735585e-52
3.39711663738e-52
1.10800155389e-52
4.23652308282e-53
9.53032017237e-54
3.09635442985e-54
9.8766368385e-55
2.1095608483e-55
7.95558912604e-56
1.10004361466e-54
1.24982094771e-53
4.20814649852e-52
2.44977771866e-50
8.84187760169e-49
3.07050499016e-47
2.87578411193e-46
1.45165150253e-45
6.13183233166e-44
6.18722364938e-43
5.62491377424e-42
6.44500643824e-41
3.81807589175e-40
2.89306231737e-39
8.99200648646e-39
1.93386722699e-38
5.32093177253e-38
7.86221460967e-38
1.48870414022e-37
1.85075637764e-37
2.73556458985e-37
2.55042512471e-37
1.95768138653e-37
1.48217612951e-37
9.35703826737e-38
5.27831729233e-38
2.33715524577e-38
1.0954770122e-38
5.42161724425e-39
2.2028809812e-39
9.14141589061e-40
4.43976546116e-40
3.57145115395e-40
4.77415747158e-40
3.01293253708e-39
7.41465744352e-39
4.62531852797e-38
1.57219891304e-37
3.58999077141e-36
2.65855909109e-35
1.70684191976e-34
5.56197467281e-34
2.35119514113e-33
1.69120437476e-32
8.1153920028e-32
2.18834173948e-31
4.93903748932e-31
1.64001909215e-30
3.05332202394e-30
4.06519261554e-30
5.51049528069e-30
5.86422056183e-30
5.26796850561e-30
3.9021159118e-30
2.50126525904e-30
1.33718644216e-30
6.60725358936e-31
2.84734141218e-31
9.62166011483e-32
4.42818852335e-32
1.49962154973e-32
1.18385515156e-32
4.46266280714e-32
9.47801187529e-32
1.20881788233e-30
5.14193992384e-30
3.56985429227e-29
5.35862967321e-28
2.12649147309e-27
3.97392500201e-27
1.58082126214e-26
5.07539510915e-26
8.71724337637e-26
9.55975596301e-26
9.01976382998e-26
7.57728507214e-26
6.18296383775e-26
6.56320462489e-26
1.17480916739e-25
6.64394163103e-25
3.93699420093e-24
2.76422558529e-23
1.64504037822e-22
1.92974992804e-21
2.06885650425e-20
6.06647931885e-20
1.26361572669e-19
3.00816779788e-19
4.26440738709e-19
7.44547086535e-19
9.79628602909e-19
9.75270780384e-19
7.5445937046e-19
4.79053471247e-19
3.08541439036e-19
1.34958207823e-19
7.3246435334e-20
2.84067734576e-20
1.2591626267e-20
4.62827607185e-21
1.7132487916e-21
7.19974404803e-22
2.51958789119e-22
6.7960137149e-23
3.64075878205e-23
9.91694665979e-23
6.0993041765e-22
3.97770807477e-21
3.66220417093e-20
3.16996835026e-19
2.41454841149e-18
2.05234112666e-17
1.57165827317e-16
4.10242053242e-16
1.06475540371e-15
2.163371065e-15
2.58141464034e-15
3.42878808102e-109
9.99043176441e-108
3.31079487181e-106
1.89393247609e-104
4.17262893196e-103
1.99116710379e-101
6.82763848205e-100
1.46682545209e-98
4.03372983591e-97
2.54662523491e-95
1.45556066326e-93
1.06111370025e-91
3.05324186784e-90
1.13683802942e-88
2.7681599972e-87
1.98937880074e-85
5.61039140843e-84
2.10499751133e-82
3.03634768994e-81
1.2946842243e-79
6.8019501716e-78
8.47396543082e-77
2.37649326827e-75
2.49048025096e-74
5.56535584956e-73
1.02767490726e-71
1.45504032268e-70
1.50162279294e-69
3.24577814773e-68
5.90217214472e-67
1.3111630804e-65
1.23424340506e-64
1.18963333576e-63
9.04358687972e-63
1.41220510165e-61
1.65813235511e-60
9.89954909037e-60
4.49955628878e-59
5.93096475402e-58
4.9508234068e-57
2.4818638011e-56
1.77871668617e-55
9.21217093417e-55
5.86547716307e-54
2.25316640551e-53
1.0638366942e-52
3.14190208676e-52
1.32540531715e-51
3.0376565478e-51
5.64634645128e-51
1.56132153277e-50
3.44058084844e-50
7.9298977188e-50
1.86707376837e-49
3.35561856492e-49
5.37592288749e-49
5.68863186152e-49
5.55907996436e-49
4.85819090821e-49
3.84488323382e-49
2.65041946512e-49
1.68738765227e-49
9.41674458518e-50
5.40196293689e-50
2.5423246581e-50
7.98753384082e-51
3.53300503618e-51
1.08570722172e-51
2.44667036611e-52
7.99898447926e-53
2.55570813596e-53
7.1637900724e-54
7.0985156498e-54
1.00731336672e-52
2.12550618415e-51
4.0072499593e-50
6.93113160479e-49
2.7616249049e-47
5.77147523264e-46
7.15330842499e-45
9.04159836348e-44
2.2471732267e-42
1.47625768263e-41
1.7888563899e-40
1.64034497079e-39
1.0945859353e-38
6.52558483168e-38
1.70275234123e-37
4.90516499456e-37
8.1635563237e-37
1.57615879502e-36
2.3411320201e-36
4.45150007177e-36
5.01478400032e-36
5.09322138899e-36
4.38617322196e-36
3.59890136955e-36
2.05013986798e-36
1.21185335686e-36
6.16086970664e-37
2.25346082513e-37
9.18360431523e-38
4.26329808472e-38
1.82971953064e-38
8.87176164042e-39
8.25501045027e-39
2.03508433471e-38
7.17657305099e-38
2.2039263564e-37
1.54142608898e-36
8.50408134217e-36
2.48631012571e-35