/*--------------------------------*- C++ -*----------------------------------*\
  =========                 |
  \\      /  F ield         | OpenFOAM: The Open Source CFD Toolbox
   \\    /   O peration     | Website:  https://openfoam.org
    \\  /    A nd           | Version:  8
     \\/     M anipulation  |
\*---------------------------------------------------------------------------*/
FoamFile
{
    version     2.0;
    format      ascii;
    class       volScalarField;
    location    "0.000332";
    object      p;
}
// * * * * * * * * * * * * * * * * * * * * * * * * * * * * * * * * * * * * * //

dimensions      [1 -1 -2 0 0 0 0];

internalField   nonuniform List<scalar> 
22800
(
101260.310283
101258.764049
101256.962409
101254.464141
101251.682821
101248.855562
101245.328006
101241.977717
101238.285686
101234.084921
101229.114012
101223.19407
101217.700597
101212.949919
101209.371881
101207.23523
101206.498199
101206.735792
101207.846621
101209.734015
101212.646725
101216.556544
101220.803932
101224.424027
101227.196538
101229.299465
101231.640586
101235.388489
101239.476139
101242.146536
101242.787356
101242.046274
101241.140818
101240.371944
101239.544859
101238.863135
101238.818319
101239.589231
101241.215324
101243.293749
101244.60525
101244.366933
101242.276936
101238.783801
101235.965805
101234.812438
101233.478405
101230.950073
101227.145431
101221.937106
101217.154622
101212.671798
101208.45189
101205.031431
101203.268252
101203.247613
101204.406187
101206.113386
101207.387761
101208.099895
101207.681852
101205.380806
101203.536482
101203.269835
101203.884705
101206.143836
101209.5004
101213.522183
101217.284833
101219.630813
101218.819424
101214.912076
101207.032555
101197.036755
101191.511241
101190.03324
101191.898654
101189.743846
101185.800896
101183.804543
101182.328679
101180.907982
101179.804388
101177.272884
101174.682416
101176.416387
101184.744158
101193.857537
101199.941958
101203.777049
101204.961047
101202.171706
101201.933894
101198.953746
101202.325126
101209.565823
101217.103159
101218.474135
101213.22508
101204.179064
101194.398007
101188.292324
101187.069224
101186.737789
101187.709095
101189.884656
101196.260426
101204.895161
101209.17172
101209.445237
101203.885652
101202.726344
101197.704628
101192.258339
101188.333226
101190.851384
101198.906741
101208.563436
101218.537649
101227.237406
101231.325724
101231.112175
101227.408708
101222.252318
101211.69028
101212.99328
101223.623794
101239.198948
101252.94588
101259.607556
101262.343892
101261.999488
101259.044244
101256.867069
101257.30536
101256.308448
101264.798519
101262.970255
101265.218175
101269.973253
101276.150732
101282.914969
101289.402787
101293.6755
101295.386803
101296.560738
101292.330201
101292.028693
101294.970291
101299.130994
101303.571138
101307.513236
101308.739548
101309.389817
101308.465468
101314.373458
101315.32722
101316.542473
101315.464776
101312.663215
101310.757405
101310.274748
101311.275533
101316.685799
101316.124373
101323.18624
101325.855848
101326.709945
101326.713178
101324.110967
101321.969848
101320.346782
101315.68748
101314.503712
101314.158611
101314.68554
101316.257862
101319.953574
101324.531473
101327.37072
101328.432305
101327.016478
101322.929889
101318.617746
101314.28877
101313.603907
101311.846632
101313.283526
101314.512796
101324.949455
101175.975227
101172.762921
101171.079949
101168.784126
101166.434057
101163.431888
101159.603764
101155.181641
101150.387938
101145.025564
101139.514426
101134.23254
101128.811858
101124.143391
101120.72766
101118.709414
101117.786891
101117.664244
101118.140844
101119.083265
101120.44533
101122.251259
101124.239862
101125.684504
101126.015269
101125.839849
101126.348311
101128.239257
101130.537751
101131.524046
101130.375999
101127.026343
101122.282379
101116.739157
101110.90945
101105.350821
101100.873264
101097.898223
101096.64703
101096.847509
101097.70116
101098.827333
101099.57567
101100.088931
101100.561864
101099.341897
101096.433752
101091.229978
101084.871208
101076.341479
101067.910854
101059.131636
101050.795212
101043.194228
101037.035847
101032.309949
101029.752585
101030.292866
101032.756751
101035.50077
101037.097576
101036.614496
101035.788213
101035.746666
101035.88579
101036.908088
101038.995432
101042.159433
101046.132735
101049.749842
101050.992426
101049.266569
101045.235084
101041.743746
101036.00623
101029.58995
101026.442221
101027.251692
101029.554913
101031.526431
101031.556285
101028.743511
101021.791787
101011.009318
101000.550009
100994.680492
100997.235305
101004.766937
101011.437377
101016.6789
101018.747533
101015.352859
101014.906302
101011.161255
101014.146583
101020.17547
101026.50223
101026.764034
101019.209899
101006.496385
100991.996067
100981.604061
100978.66557
100979.7194
100984.4515
100992.310251
101003.901092
101017.630075
101032.447721
101045.170617
101046.914288
101045.422056
101031.914129
101016.023902
101002.799985
100999.054059
101008.449838
101027.016869
101045.258708
101057.11764
101062.240284
101061.482705
101051.777095
101043.91297
101034.467484
101041.46726
101058.737072
101080.107522
101099.448296
101111.248714
101117.972459
101119.859856
101118.813469
101121.282253
101129.011852
101136.138065
101150.671487
101154.986355
101164.438062
101176.93288
101190.07221
101201.57576
101212.805384
101222.313213
101228.011301
101234.090469
101231.833704
101237.602251
101244.529062
101252.895695
101262.375526
101273.559767
101279.981188
101283.122515
101280.236365
101290.237293
101291.763237
101295.636505
101298.047419
101299.53509
101300.676131
101301.781975
101305.242219
101312.471389
101312.897281
101319.612883
101321.325737
101318.910774
101315.770986
101311.597612
101307.533073
101304.597126
101296.135561
101293.692768
101291.541275
101291.344553
101293.026483
101299.239812
101308.303063
101315.538587
101319.846808
101318.971513
101313.300708
101308.075423
101305.73527
101309.695183
101313.906995
101318.014217
101319.130895
101333.126857
101077.449618
101072.425387
101069.635856
101065.730336
101061.72172
101056.642884
101050.31254
101043.347437
101036.153801
101028.547792
101020.971787
101013.778765
101007.414231
101002.584988
100999.391274
100997.438122
100996.112018
100994.922146
100993.701956
100992.518078
100991.333468
100990.025504
100989.240466
100988.712737
100987.252677
100985.356296
100984.492811
100985.653802
100987.115211
100987.202215
100985.651728
100981.9004
100976.275501
100969.427278
100961.838423
100954.305551
100948.066221
100943.604227
100941.027424
100939.960165
100939.641799
100940.206245
100941.214105
100942.372558
100943.338498
100942.341599
100938.510657
100932.415164
100925.082806
100915.508156
100906.00132
100896.293701
100886.581875
100877.532326
100869.732888
100862.345493
100855.942595
100852.654761
100853.236617
100856.231644
100859.338048
100861.457353
100862.979518
100864.432653
100865.367281
100865.521166
100865.164811
100864.816942
100865.257761
100866.590033
100868.023538
100868.918288
100867.823419
100865.675507
100859.435549
100852.552968
100847.268073
100845.234165
100843.494484
100841.254041
100837.754489
100833.572561
100827.989382
100818.87908
100805.580264
100791.549745
100784.412765
100787.807596
100795.642752
100805.121189
100813.416939
100815.844444
100817.952126
100814.422345
100814.971427
100816.557643
100818.30739
100815.696852
100807.547501
100794.886539
100780.243898
100770.65902
100770.457543
100776.457433
100787.184453
100799.906611
100814.386364
100829.608814
100845.211442
100857.089993
100857.244805
100846.845926
100827.135442
100805.790718
100792.551458
100795.619542
100814.142067
100838.765261
100860.745072
100876.42573
100885.492723
100885.831043
100875.604705
100868.147665
100862.709518
100875.238025
100898.560644
100926.732555
100952.331903
100966.893716
100975.017389
100977.818998
100979.324268
100986.361944
101001.138795
101018.272452
101040.25799
101051.408511
101065.255395
101081.042534
101096.186627
101108.258955
101121.796617
101134.047199
101143.44941
101156.908697
101163.52508
101176.935005
101193.260414
101208.533479
101223.719132
101237.81014
101246.342143
101252.510282
101252.172386
101266.520821
101269.718773
101274.567465
101278.785723
101282.281765
101284.572777
101286.879321
101290.865768
101298.56392
101299.823988
101306.811118
101308.739406
101305.286645
101300.649537
101295.351543
101290.543299
101288.622828
101281.068687
101278.210335
101274.656808
101272.191108
101271.542399
101277.605531
101289.950253
101302.894485
101312.245942
101313.245057
101306.519767
101299.625101
101296.853054
101301.865275
101306.648154
101313.144896
101314.167756
101339.032603
100988.407409
100981.656251
100976.93274
100970.001923
100962.50781
100954.170023
100945.252991
100936.586154
100928.335652
100920.888078
100914.037657
100908.22651
100903.722686
100900.415005
100897.922738
100895.596937
100893.116197
100889.814205
100885.966937
100882.62394
100878.740027
100874.127401
100871.011339
100869.151291
100866.335291
100862.575368
100859.763853
100858.947441
100857.740411
100855.576709
100852.574356
100847.525731
100841.444631
100834.534295
100826.7718
100818.67151
100811.012586
100804.155066
100798.263508
100793.486065
100789.634019
100787.732247
100788.18992
100790.753432
100793.681138
100794.473975
100791.803753
100787.746634
100781.487184
100773.080968
100764.928506
100755.944928
100745.804027
100735.783241
100727.023582
100718.172407
100708.368221
100698.792563
100692.403343
100690.489269
100691.951206
100696.531691
100702.127585
100706.878965
100709.767721
100710.029045
100708.037452
100703.828332
100699.031568
100694.97154
100692.829588
100693.40033
100694.160672
100694.928818
100691.415349
100683.873671
100677.117645
100671.13154
100664.719132
100657.498977
100650.112111
100643.618111
100639.086603
100635.547949
100627.954395
100613.190305
100600.039577
100596.064453
100601.58496
100612.783324
100625.783005
100633.875851
100639.272516
100636.295368
100634.633724
100632.618439
100630.599487
100625.835563
100618.281801
100608.212275
100595.740943
100587.306333
100587.075855
100592.20699
100603.629826
100618.920541
100636.780636
100654.539981
100667.906982
100673.791361
100667.155969
100654.856043
100637.496077
100622.375307
100615.579746
100620.199258
100637.260196
100662.589738
100687.834883
100707.409587
100719.616713
100722.484742
100716.167307
100711.286683
100709.177031
100723.734229
100751.256071
100782.359463
100811.194831
100829.825054
100841.862982
100847.049352
100851.353411
100862.524581
100883.314175
100910.288381
100938.259702
100956.18284
100973.128555
100990.637644
101007.565498
101022.316058
101039.274427
101055.119165
101068.370145
101087.343925
101100.615833
101121.960141
101144.780558
101166.010332
101185.521669
101200.197816
101210.684002
101222.736481
101230.89233
101252.303652
101260.108672
101266.946623
101271.654158
101273.834189
101275.663409
101278.392072
101282.652356
101290.470326
101291.388681
101296.335511
101294.656674
101288.158928
101282.50884
101274.458907
101269.91864
101272.353773
101268.845284
101265.223653
101259.338636
101253.588917
101249.790964
101254.361094
101267.476108
101283.621373
101296.679756
101300.433819
101296.561942
101293.613912
101294.94261
101302.109001
101306.508797
101313.340883
101314.064417
101348.009669
100898.621926
100889.809665
100883.338599
100874.193203
100864.895169
100855.301557
100845.593506
100836.48066
100828.424265
100821.604897
100815.754142
100811.08968
100807.330217
100804.19172
100801.251837
100797.976807
100794.200447
100789.360022
100784.445451
100780.303939
100775.21987
100769.469834
100765.705462
100763.444822
100759.59178
100753.506437
100748.205511
100743.84006
100738.049368
100732.257305
100726.46578
100720.559129
100715.069851
100709.690644
100703.664011
100696.686168
100688.815254
100680.570132
100671.917055
100663.477481
100655.330118
100648.6651
100644.5281
100643.489902
100643.888638
100643.199297
100640.253222
100638.211438
100634.237807
100628.551587
100623.301766
100616.744723
100608.402064
100598.800285
100588.418621
100578.366329
100568.37192
100558.395894
100549.078618
100541.641436
100537.632751
100538.597935
100543.162291
100548.337537
100552.533905
100554.573133
100553.833937
100548.876654
100540.452802
100530.538926
100521.508868
100516.095519
100514.764243
100518.718868
100521.66646
100518.172751
100513.11513
100505.899029
100496.746546
100486.495038
100476.355534
100466.732574
100459.978198
100459.247241
100459.993055
100454.494765
100442.485575
100432.209183
100430.862211
100436.348819
100447.553397
100458.888299
100469.490773
100468.621145
100464.969029
100457.673674
100448.728484
100440.682934
100435.472978
100431.231886
100424.687651
100419.79787
100420.762026
100424.909154
100433.470714
100446.822767
100463.395879
100479.032072
100487.847978
100487.756612
100475.811697
100466.438806
100455.827159
100450.874586
100451.976539
100461.707051
100480.185635
100505.251592
100531.344841
100552.342279
100565.575342
100570.845518
100569.250593
100568.850479
100572.267284
100587.668791
100613.186184
100642.467666
100670.477178
100692.494496
100711.513455
100723.994415
100737.288453
100756.417366
100782.32955
100811.605235
100843.422987
100863.89867
100882.396949
100900.55061
100921.038718
100941.835734
100967.930034
100991.967326
101010.567491
101034.303952
101050.546834
101077.40579
101102.645766
101126.479649
101147.174057
101162.519479
101176.20263
101195.438755
101211.447076
101238.166531
101250.238382
101258.593135
101262.438296
101263.055012
101265.217648
101269.318656
101274.158583
101281.339711
101282.3195
101287.291649
101285.128637
101275.708073
101266.153917
101257.194493
101252.780516
101256.954304
101256.965847
101253.655584
101245.799723
101236.610781
101229.915492
101232.73044
101245.439573
101262.45142
101278.308469
101286.089655
101286.906061
101289.243654
101294.048597
101302.355059
101306.37482
101313.866173
101314.523078
101357.40874
100809.389432
100799.234094
100791.609224
100781.374766
100772.467896
100763.395071
100755.379645
100747.027464
100740.163279
100734.930495
100730.039424
100725.32062
100720.654919
100715.922062
100710.911862
100705.243606
100699.211474
100693.105895
100687.7655
100683.251353
100678.370022
100673.402722
100669.782968
100667.213206
100662.394465
100654.184078
100645.995374
100637.32506
100627.451443
100617.981129
100609.258506
100602.17308
100596.634194
100592.23707
100587.939357
100582.968693
100577.01335
100570.029553
100561.791901
100552.96259
100543.118966
100532.674092
100521.989194
100512.355557
100503.944672
100496.437805
100489.72547
100487.398687
100486.847343
100486.443806
100485.966395
100483.447055
100478.254928
100470.626179
100460.510751
100448.819652
100437.385396
100428.719698
100422.244539
100416.266761
100409.113304
100403.362988
100399.989383
100396.962272
100394.023218
100392.221157
100393.083276
100393.763842
100390.602828
100382.687955
100371.313037
100359.149998
100349.88167
100349.20948
100354.225022
100356.268996
100355.000133
100350.068173
100340.766454
100329.366552
100318.325583
100307.786874
100298.68625
100295.715586
100299.85287
100303.653874
100300.180562
100290.716026
100283.066663
100278.934747
100281.569403
100289.349842
100302.529042
100305.997568
100303.210302
100294.636772
100283.176784
100273.145472
100269.116845
100269.473484
100269.761068
100269.980837
100271.439703
100273.682592
100279.090891
100288.281744
100300.12687
100310.258864
100313.890592
100311.000591
100300.317125
100297.855951
100296.783312
100301.896186
100311.08482
100324.376687
100341.567754
100362.81178
100385.551379
100405.303914
100418.413294
100425.567042
100428.799807
100432.408175
100443.772861
100460.893503
100485.896962
100512.527314
100538.564034
100561.796813
100587.725242
100609.658624
100635.245499
100664.04706
100694.541322
100720.777684
100751.783651
100771.155155
100790.315157
100812.115015
100839.081188
100869.131581
100905.773691
100940.879669
100968.483373
100998.338807
101014.755516
101043.235806
101066.943876
101090.074525
101111.471806
101130.515148
101151.159835
101176.86
101196.16584
101224.390016
101239.186397
101249.26428
101255.271716
101257.085856
101260.827278
101266.090346
101270.87846
101276.733066
101277.096628
101281.915935
101280.554356
101271.42798
101260.022661
101248.017286
101242.151612
101244.652811
101244.201875
101240.128444
101230.834646
101219.996972
101212.279952
101213.943026
101225.316603
101240.520223
101256.657328
101267.729511
101274.944844
101285.437899
101295.240522
101304.871862
101308.486145
101316.006848
101315.981475
101365.719348
100722.654104
100712.30818
100705.628988
100696.265607
100689.670311
100682.568525
100676.92747
100671.135896
100665.678982
100660.324768
100654.677522
100648.366356
100641.516843
100634.270024
100626.680731
100618.697724
100611.079258
100604.092229
100597.895728
100592.714473
100588.459648
100583.997448
100579.225098
100575.544781
100570.052297
100560.687951
100549.968262
100538.472371
100526.175435
100513.784076
100502.268127
100491.985109
100483.779624
100477.244117
100471.204949
100466.48686
100463.242071
100460.895205
100457.660718
100452.75749
100445.074364
100434.666091
100421.596012
100407.13053
100392.117752
100378.178652
100364.818323
100355.193121
100350.344972
100348.189519
100347.546454
100348.027091
100347.517987
100345.19836
100339.48285
100330.358675
100318.569177
100307.219639
100298.302278
100290.954956
100284.694218
100279.041985
100272.180729
100264.024157
100255.073406
100244.779831
100235.781475
100232.425924
100235.830811
100239.145225
100235.558063
100224.529599
100209.730988
100199.610315
100198.671402
100203.224878
100206.696133
100205.558623
100198.310043
100186.545868
100174.802118
100165.264928
100157.292426
100152.797573
100154.662318
100161.600135
100165.190137
100160.320377
100150.723885
100138.50802
100131.328796
100132.163867
100144.068002
100151.12787
100151.219185
100145.040953
100135.59305
100126.417787
100123.181394
100124.940346
100128.896041
100133.2897
100135.059966
100134.807087
100136.63173
100140.3825
100146.395229
100151.792334
100154.243363
100154.681876
100150.556642
100155.642358
100161.228632
100172.026446
100185.054274
100198.664078
100212.099156
100226.756588
100243.150047
100260.822728
100273.897731
100282.974462
100291.725388
100299.972784
100318.334102
100339.197318
100368.595358
100397.481588
100424.910804
100449.323568
100477.457568
100503.335838
100536.777133
100572.513141
100607.370971
100632.732848
100665.351854
100685.644476
100709.034287
100738.057888
100773.169677
100810.539415
100853.391792
100895.890244
100929.50278
100963.941276
100981.653127
101011.531005
101035.796963
101060.41596
101084.200071
101108.646449
101134.80794
101163.806794
101182.698803
101209.447802
101225.042395
101236.737504
101245.84915
101249.362805
101253.182678
101257.930115
101262.979722
101269.322145
101271.243924
101276.570281
101277.389406
101271.655361
101262.57518
101249.26876
101240.673436
101237.341941
101231.014899
101223.919971
101213.532826
101202.628613
101196.34976
101198.461896
101207.976181
101219.810141
101233.39959
101246.329041
101260.547462
101279.796404
101294.899507
101306.451311
101309.702139
101316.744924
101315.872349
101372.30431
100645.05448
100634.083727
100628.779881
100621.551546
100617.088716
100612.478048
100608.309123
100604.462842
100599.656602
100593.851304
100587.307292
100579.398109
100570.494464
100561.018174
100551.306083
100541.67008
100532.853318
100524.523041
100516.523781
100509.612968
100504.100464
100497.667259
100490.229304
100484.810118
100478.674708
100469.165962
100458.602259
100447.561578
100435.960988
100423.904392
100411.664938
100400.136293
100389.06549
100377.850804
100366.052009
100355.37406
100348.263053
100346.107894
100347.588204
100349.886102
100348.560533
100342.189152
100331.166549
100317.081006
100301.031665
100284.588516
100268.2397
100252.452599
100238.316118
100225.79623
100216.396031
100211.472694
100211.825151
100216.776841
100220.664492
100219.562689
100213.669369
100204.320447
100191.873488
100177.238205
100164.476381
100155.772798
100150.19691
100144.371503
100135.176743
100121.689496
100105.52755
100091.874999
100088.282232
100094.811233
100103.876952
100104.802324
100094.762192
100079.555356
100067.580967
100065.576532
100067.150973
100068.416273
100065.302458
100055.829537
100044.481635
100036.432717
100031.582013
100028.357741
100027.841584
100032.726167
100037.435744
100035.898674
100027.223219
100011.841951
99998.4794126
99992.8377468
99999.9851564
100007.681363
100009.68555
100007.316789
100002.451194
99997.1066256
99995.9585785
99998.7360797
100004.3904
100011.145285
100012.11277
100008.832541
100008.139694
100006.943838
100007.038574
100007.787082
100010.113301
100015.292364
100018.171511
100027.330779
100036.169024
100048.906779
100061.576542
100072.950124
100083.393848
100094.442212
100106.426655
100122.303417
100135.313043
100146.035095
100160.426778
100173.875583
100198.486546
100223.873695
100255.550599
100289.867343
100323.524931
100353.413226
100385.974675
100412.398587
100442.876076
100477.062775
100513.327066
100540.192655
100577.803856
100605.05549
100638.713463
100678.137624
100721.447595
100763.107131
100806.953626
100851.175676
100885.992719
100922.923456
100943.387726
100977.03834
101006.188396
101034.861956
101061.491068
101090.994959
101120.048876
101148.569846
101164.606649
101188.878779
101205.422509
101219.235878
101230.388972
101235.114124
101240.185438
101245.369045
101250.657112
101256.76414
101260.992333
101267.224784
101270.520117
101269.178603
101264.710294
101253.650463
101242.783588
101232.692758
101220.223787
101207.851513
101195.913635
101186.551889
101182.968326
101186.201486
101194.013975
101202.977929
101213.323367
101226.672009
101246.978903
101273.121164
101292.811064
101306.869113
101311.147187
101318.608351
101317.886376
101380.352826
100581.689746
100569.909851
100564.494528
100558.543594
100554.543698
100550.585484
100546.737186
100542.312693
100537.604106
100531.892703
100525.20855
100517.307341
100508.180971
100498.203706
100487.779912
100477.389685
100467.649013
100457.951248
100447.765704
100437.978406
100428.60847
100416.960564
100404.517661
100395.361001
100386.570446
100375.873174
100366.42417
100358.67328
100350.607219
100340.976702
100329.691106
100317.895172
100306.315454
100294.148596
100280.615701
100265.875634
100251.373852
100240.397285
100235.198436
100235.753741
100239.404889
100242.397912
100240.13513
100232.191844
100220.196251
100205.394892
100188.775231
100171.50441
100152.455341
100132.956479
100114.440794
100099.489146
100090.549023
100088.930668
100094.722131
100103.13181
100108.333877
100106.880834
100099.509475
100086.763637
100070.433982
100053.078409
100037.669222
100025.906367
100016.397786
100005.907276
99993.203276
99978.1283318
99966.4531227
99964.6405418
99975.1772564
99986.8670616
99987.3698161
99974.9276644
99956.6800415
99944.7279186
99939.7478797
99938.9946195
99939.8245113
99936.1711139
99928.5406645
99921.7945263
99918.0429337
99915.5146026
99914.2446311
99916.299182
99918.6000586
99917.3457699
99909.9617578
99895.6536634
99880.2586445
99870.4319052
99872.7472143
99879.564628
99881.6144568
99881.6555582
99879.7332203
99877.2782665
99878.4292919
99883.4723902
99891.2989971
99899.7281955
99899.986302
99894.420015
99890.4241493
99882.7650458
99875.7957065
99871.8734426
99874.2723952
99883.7490829
99893.6102128
99905.8960025
99914.9633327
99925.4333334
99935.3295388
99943.9461852
99954.3252289
99966.3657748
99978.2007635
99994.3404236
100008.287488
100021.964097
100043.376559
100063.418378
100092.473809
100119.133461
100149.865309
100186.401396
100226.266874
100263.821938
100305.810678
100336.865196
100360.093683
100382.967924
100414.023053
100444.328254
100491.934504
100531.57347
100577.672124
100627.147792
100676.918328
100720.577441
100763.174115
100805.798696
100839.2879
100877.413959
100901.813147
100940.585589
100976.376808
101010.481739
101040.327897
101073.122042
101101.0073
101126.261083
101139.669176
101162.47137
101181.381228
101198.429878
101214.263753
101221.380436
101228.903863
101235.175821
101240.912418
101245.515004
101251.310316
101255.762948
101259.811776
101262.260298
101262.636471
101253.66791
101242.76976
101227.570258
101209.934389
101192.183553
101179.136969
101171.598134
101170.021138
101176.555807
101183.23576
101190.899768
101199.506603
101212.882414
101236.810084
101266.333157
101288.73576
101304.86609
101310.554411
101319.948813
101321.055935
101389.479783
100532.125006
100519.68404
100513.379256
100507.282766
100502.538994
100496.86555
100491.151388
100484.716188
100478.482828
100471.252163
100463.958183
100456.428384
100448.758467
100440.43163
100431.332288
100421.839278
100412.146372
100401.652231
100389.857473
100377.829075
100364.518169
100347.467267
100330.351196
100317.122479
100304.124861
100289.517858
100276.826174
100269.150345
100263.886243
100257.354232
100248.739618
100238.775537
100228.943991
100219.613057
100209.082426
100195.774309
100180.243571
100164.300603
100150.063254
100139.094817
100132.885386
100131.853717
100135.034888
100138.871592
100137.649676
100129.348155
100115.59564
100098.372067
100078.895543
100058.160599
100038.457791
100019.93456
100003.893707
99991.288372
99984.6368043
99985.7588418
99994.2409197
100004.572947
100009.248131
100005.146269
99991.4299001
99969.2862766
99944.2991154
99921.8726463
99905.5091837
99895.5767272
99889.6456713
99881.137364
99870.3457929
99861.6117242
99861.4764352
99870.8027389
99878.0118569
99872.3400504
99855.0413529
99838.5833962
99829.3181305
99825.3337937
99827.7907093
99830.5261691
99828.9669011
99823.1255479
99816.8252842
99811.2028598
99808.3583386
99808.4397735
99808.0172117
99806.4578273
99800.7050425
99788.0075701
99772.3525221
99759.4508395
99757.6196137
99763.7499287
99766.0965741
99768.2904855
99768.341058
99766.6553078
99767.6375756
99773.4222714
99784.4138022
99796.0607965
99796.9680608
99789.3476913
99779.9821267
99765.189567
99752.1756107
99744.7251639
99746.0822593
99756.9865873
99772.0202317
99789.5335392
99802.05065
99813.1815971
99822.7835547
99829.7125875
99838.9827478
99850.6324738
99862.7867062
99880.7411509
99897.4672866
99916.7325638
99946.3295735
99973.8981849
100006.243138
100032.415793
100059.708425
100090.799765
100129.263517
100172.522058
100224.914538
100264.365609
100287.279962
100303.246216
100327.503057
100360.287718
100416.761481
100467.672076
100524.068481
100580.304666
100633.884518
100678.209736
100719.650449
100759.25879
100791.405677
100832.80244
100861.908039
100904.627441
100945.725913
100984.566264
101017.805157
101053.009496
101079.883344
101102.304236
101115.394759
101138.452976
101162.027693
101182.761259
101200.713902
101209.841275
101220.718113
101229.63246
101236.496007
101238.31103
101243.766477
101245.383015
101246.586972
101250.069827
101255.369733
101248.548271
101238.034695
101219.841037
101198.523749
101176.925142
101163.152355
101157.65447
101158.510814
101167.516031
101174.857242
101182.327338
101190.08088
101203.591069
101229.777935
101260.27205
101283.504231
101301.361224
101309.223842
101322.174003
101325.749854
101398.244687
100494.909214
100481.368587
100473.099512
100464.499269
100456.423778
100447.369894
100438.290272
100428.979929
100420.595068
100411.760577
100404.382557
100397.683176
100391.515754
100384.846351
100377.436109
100369.290298
100360.281069
100349.64467
100337.480999
100324.862014
100309.04397
100289.036251
100270.276442
100255.066756
100239.242047
100221.612955
100205.194722
100192.622937
100182.161214
100171.916011
100162.613956
100155.200511
100150.035156
100146.529795
100141.496458
100132.678879
100120.033599
100105.106395
100089.301026
100073.841799
100059.351895
100046.643264
100037.877179
100035.715942
100039.493155
100043.111202
100039.199288
100027.039231
100010.656863
99992.6077113
99974.7611557
99957.6033457
99940.3024735
99922.7974272
99907.1831782
99897.3227938
99895.5248731
99902.0685983
99912.6531748
99919.1963782
99914.6245736
99894.3780137
99863.5973446
99832.2828002
99808.8655773
99797.3577293
99795.4953883
99793.8357954
99786.7305763
99774.023253
99762.8593616
99760.4103667
99766.3269881
99768.6550111
99759.7665056
99747.8309474
99739.7067607
99734.5928444
99735.4317166
99739.1284058
99740.8335252
99735.5729826
99725.6979323
99714.7498631
99708.742368
99706.0585487
99704.5172616
99703.8691618
99699.0414336
99689.1276116
99673.8367937
99658.3756803
99651.2746829
99655.0108191
99658.50553
99664.8946783
99669.769954
99671.3196389
99671.7472983
99674.0790162
99682.3638075
99695.3995322
99697.5743121
99687.8276418
99672.3914112
99653.0508711
99639.2591802
99633.4279377
99636.8325094
99647.9796528
99663.6716558
99684.217528
99701.8757272
99718.8302828
99732.772188
99740.6631984
99746.3250058
99752.9792491
99763.1144073
99782.5279277
99802.8499018
99829.3242972
99866.1654174
99900.1821925
99934.4870151
99959.5942836
99984.1592227
100007.482284
100036.678426
100076.562984
100136.232816
100185.829415
100216.333503
100238.009537
100263.921838
100299.097458
100359.050964
100415.28259
100476.621004
100535.383469
100589.073833
100632.042415
100674.586148
100715.595686
100749.106732
100795.171133
100829.025348
100873.147805
100916.005664
100957.934793
100994.247618
101031.611982
101059.768308
101082.675832
101100.198884
101126.135024
101154.409385
101175.462207
101194.135089
101204.920353
101218.635249
101231.149306
101239.889661
101238.74466
101241.516691
101238.991923
101236.556626
101237.582644
101242.36421
101239.369399
101229.24831
101209.279972
101186.23298
101162.917596
101148.706491
101144.410741
101147.104062
101157.896152
101166.94169
101174.799385
101183.313024
101197.569458
101225.494864
101255.469497
101278.153109
101297.276255
101307.331426
101322.966024
101326.82759
101400.187794
100465.329201
100449.690332
100439.35006
100426.986086
100415.020093
100402.740862
100390.377018
100377.743158
100367.399945
100357.629213
100349.479918
100342.318835
100336.292917
100330.228509
100323.490209
100315.657498
100306.598723
100295.923462
100284.664417