/*--------------------------------*- C++ -*----------------------------------*\
  =========                 |
  \\      /  F ield         | OpenFOAM: The Open Source CFD Toolbox
   \\    /   O peration     | Website:  https://openfoam.org
    \\  /    A nd           | Version:  8
     \\/     M anipulation  |
\*---------------------------------------------------------------------------*/
FoamFile
{
    version     2.0;
    format      ascii;
    class       volScalarField;
    location    "0.000332";
    object      rho;
}
// * * * * * * * * * * * * * * * * * * * * * * * * * * * * * * * * * * * * * //

dimensions      [1 -3 0 0 0 0 0];

internalField   nonuniform List<scalar> 
22800
(
0.0701508585171
0.070151505206
0.0701519455812
0.0701521156632
0.070152451518
0.0701532804545
0.0701544439389
0.070156419208
0.0701588017256
0.0701610753464
0.0701627000281
0.0701636491448
0.0701647335968
0.070166230943
0.0701684248735
0.0701715029782
0.0701754950547
0.0701801315183
0.0701851486788
0.0701903584798
0.070195851673
0.0702015727087
0.070207105857
0.070211998292
0.0702161493988
0.0702196497839
0.0702229464081
0.0702266319066
0.070230225115
0.0702328225142
0.07023415946
0.0702345712676
0.070234607423
0.0702344452613
0.0702340246589
0.0702334285709
0.0702328877878
0.0702324112056
0.0702319281381
0.0702311427627
0.0702293254819
0.0702259918743
0.0702209597248
0.0702144570677
0.0702075249883
0.0702006532512
0.0701929223258
0.0701837822939
0.0701730756257
0.0701606296055
0.0701472883354
0.0701329330544
0.0701176721116
0.0701027162524
0.0700897369585
0.070078968908
0.0700702858304
0.0700635037697
0.0700582118806
0.0700543004492
0.0700512685808
0.0700484956216
0.0700469268479
0.0700468570862
0.0700478761142
0.0700506841744
0.070055224354
0.0700615417783
0.0700693433546
0.0700780491045
0.0700868378843
0.07009588969
0.0701046631123
0.0701135389584
0.0701249880683
0.0701387827953
0.0701544923833
0.0701687065355
0.0701828415694
0.0701980500737
0.0702124694589
0.0702251487052
0.0702356963669
0.0702428553717
0.0702471903695
0.0702512743014
0.0702569576632
0.0702613135382
0.0702623226237
0.0702605815625
0.0702546760304
0.0702428255127
0.0702273746707
0.070204783325
0.0701787392719
0.0701505268322
0.0701260606275
0.0701056695128
0.070088149246
0.0700736442354
0.0700626402139
0.0700566340117
0.0700553697172
0.0700561157933
0.0700594687706
0.0700659138095
0.0700772099576
0.0700923942861
0.0701082732907
0.0701254777567
0.0701435792445
0.0701678722923
0.0701924503338
0.0702146193846
0.0702323334078
0.0702477633748
0.0702605987986
0.0702698144472
0.0702761445442
0.0702793846339
0.0702777529244
0.0702703596431
0.0702556730661
0.0702331353768
0.0701993005439
0.0701638167834
0.0701342203717
0.0701177076741
0.0701099310601
0.070106003502
0.0701051568601
0.0701059278639
0.0701086502375
0.0701166121
0.0701323589293
0.0701554491123
0.0701910958057
0.0702222272811
0.0702460273982
0.0702617804962
0.0702710992212
0.0702762966934
0.0702783405878
0.0702752482312
0.0702655867221
0.0702484437162
0.0702201704171
0.0701896091302
0.0701673609124
0.0701556364463
0.0701517189959
0.0701523097546
0.0701547000378
0.0701612484205
0.0701736960785
0.0701971227428
0.0702226969373
0.0702432223441
0.070254011898
0.0702572245188
0.0702568618373
0.0702545520776
0.0702483531505
0.0702378042845
0.0702179537102
0.0702014480096
0.070189947876
0.0701844055707
0.0701827488381
0.0701822357014
0.0701848680367
0.0701916479158
0.0702000980173
0.0702092813285
0.0702148456108
0.0702174380347
0.0702185071157
0.0702192733599
0.0702186010413
0.0702156063887
0.07021158012
0.0702080695566
0.0702052091369
0.0702033994809
0.070202203369
0.0702032885062
0.0702033722499
0.0702043080023
0.0702045721645
0.0702089888736
0.0700938081538
0.070095708404
0.0700979458683
0.0700998539232
0.0701018421708
0.0701037829708
0.0701058775424
0.0701083390054
0.0701110447842
0.0701133346574
0.0701151789009
0.0701169120005
0.0701184643891
0.0701203592106
0.070122960358
0.0701264206706
0.0701305902399
0.0701352237541
0.0701400877986
0.0701450444982
0.0701500367961
0.0701549785536
0.0701596749415
0.0701637618633
0.070166953156
0.0701695602939
0.0701721894624
0.0701752264459
0.0701781668938
0.0701800821894
0.0701806369127
0.0701798895971
0.0701780851023
0.0701754885449
0.0701723430246
0.0701688723814
0.0701656328377
0.0701629161849
0.0701605771175
0.0701582939046
0.0701555804796
0.0701521714101
0.070147692489
0.0701422199476
0.0701358877763
0.0701279009459
0.0701182586916
0.0701066050364
0.0700934327333
0.0700781483887
0.0700618299713
0.0700441294285
0.070025488992
0.0700071192765
0.0699908210385
0.0699768254981
0.0699656544913
0.0699578523878
0.0699528335934
0.069949711463
0.0699475839553
0.0699457442782
0.0699447402433
0.0699447879908
0.0699455487017
0.0699477626241
0.0699517932002
0.0699578727215
0.0699659944811
0.0699755863263
0.0699856815318
0.0699961158131
0.070007084325
0.0700194933877
0.0700311211309
0.070042386485
0.0700556200261
0.0700714554718
0.0700888054238
0.0701060205138
0.0701211161573
0.07013300731
0.0701406258568
0.0701437651146
0.0701443241644
0.0701446409141
0.0701473959859
0.0701513761372
0.0701529500769
0.0701518131958
0.0701460582376
0.0701332995164
0.0701167976919
0.0700925744677
0.0700647430872
0.070034229655
0.0700079098755
0.069986105052
0.0699668442619
0.0699500661318
0.0699362883897
0.0699277728719
0.0699254991146
0.0699271343282
0.0699328182118
0.0699424651934
0.0699565527047
0.0699745727809
0.0699961099096
0.0700194250563
0.0700405734797
0.0700638795957
0.0700835720075
0.0701007133352
0.0701145435463
0.0701280840239
0.0701429350546
0.0701577299981
0.0701688715838
0.0701737640365
0.070172610079
0.070164705076
0.0701466867125
0.0701224939494
0.0700889322975
0.0700559477442
0.0700293248293
0.0700155938631
0.0700106225647
0.070009382601
0.0700105786909
0.0700127469723
0.0700166035427
0.0700272123903
0.0700471832467
0.0700750923701
0.0701145945803
0.0701497519065
0.0701782028167
0.0701989616642
0.0702129592532
0.0702217926278
0.0702273822807
0.0702275962149
0.0702205216986
0.0702062536689
0.0701789639081
0.0701515089446
0.070131631987
0.0701225327408
0.0701213818962
0.0701259507172
0.0701318764775
0.0701404383198
0.0701525926025
0.0701795212203
0.0702065139938
0.0702290150883
0.070241898904
0.0702475946947
0.0702488469221
0.0702473815622
0.0702425498677
0.0702332283905
0.0702141111309
0.0701973382283
0.0701854615364
0.0701782874095
0.0701748882988
0.0701731493469
0.07017443375
0.0701801209765
0.0701862556473
0.0701947411788
0.0701995491334
0.0702019159557
0.0702031642552
0.0702054848666
0.0702075375138
0.0702071012592
0.0702050223485
0.0702021324416
0.0701987049622
0.0701964187829
0.0701966092222
0.0702004393526
0.0702041653244
0.0702066708921
0.0702069707377
0.0702136966389
0.0700273593509
0.0700313757249
0.0700359374686
0.070039929109
0.0700439566328
0.070047602838
0.0700510649576
0.0700545942982
0.0700579412362
0.0700606343034
0.0700630145833
0.0700653989202
0.0700680928144
0.0700715513517
0.0700759137313
0.0700809596029
0.0700862952354
0.070091567678
0.0700966312407
0.0701015224603
0.070106165398
0.0701104290214
0.0701145958666
0.0701184884696
0.0701214909659
0.0701238625976
0.0701264121178
0.0701297600393
0.0701329446745
0.0701349748014
0.0701357881866
0.0701352254416
0.070133382891
0.0701303541466
0.070126350108
0.0701217199573
0.0701173089916
0.0701135215132
0.0701100243366
0.0701063625643
0.0701020176054
0.0700969630691
0.0700909437591
0.0700838339242
0.0700755861349
0.0700654493294
0.0700530412783
0.0700386137661
0.0700225333717
0.0700041229809
0.0699843439822
0.0699628959216
0.0699402419348
0.0699183253265
0.06989883564
0.0698816536631
0.0698672469471
0.0698566835024
0.0698501656752
0.0698467206918
0.0698449913175
0.0698442335307
0.0698443682362
0.0698452459698
0.0698466807725
0.0698490494636
0.0698528181523
0.0698583559498
0.0698660118739
0.0698757114749
0.0698870302627
0.0698997688734
0.0699133088356
0.0699278302953
0.069940786194
0.0699530816913
0.0699662766764
0.0699814657246
0.0699975489211
0.0700134771725
0.0700277022696
0.0700399724357
0.070049492138
0.0700546274832
0.070054799447
0.0700518696421
0.0700499315325
0.0700519848002
0.0700547350898
0.0700556574022
0.0700526460015
0.0700418483866
0.070024722451
0.0699978323454
0.0699653534837
0.0699290415144
0.0698976020967
0.0698722806342
0.0698512706502
0.0698336608596
0.0698193549649
0.0698108037963
0.0698095090973
0.0698136283524
0.0698224064309
0.0698344680253
0.0698501378107
0.0698693735744
0.069891958293
0.0699156243788
0.0699366268947
0.0699563320987
0.0699739960786
0.069989503725
0.0700044664831
0.0700222645513
0.0700424617295
0.0700609683027
0.0700746976477
0.0700820768887
0.0700832070724
0.0700760948951
0.0700576427633
0.0700325432314
0.0699987245248
0.0699655396162
0.0699395179257
0.0699276416287
0.0699247944478
0.0699241583085
0.0699256730992
0.0699283490072
0.069933671667
0.0699467597637
0.0699705820296
0.0700042360984
0.0700486602653
0.070088602864
0.0701204481419
0.0701439885713
0.0701600433334
0.0701700281269
0.0701772803558
0.0701788537716
0.070173226508
0.0701621678735
0.0701387088567
0.0701142899789
0.0700985190856
0.0700922243443
0.0700931436832
0.0700990960552
0.0701066780442
0.070117402683
0.0701317075447
0.0701617419076
0.0701906638094
0.0702147515484
0.0702294481804
0.0702367033862
0.0702388045803
0.0702380091086
0.0702334210106
0.0702241715878
0.070205061132
0.070187747347
0.0701754989062
0.0701676098971
0.0701632689019
0.0701608332123
0.0701619251076
0.0701685542343
0.0701758586137
0.0701845286801
0.0701887416712
0.0701899810311
0.0701899660767
0.0701919096515
0.0701954613992
0.0701979284955
0.0701983875374
0.0701966660253
0.0701931097215
0.0701904031345
0.0701909151709
0.0701958257829
0.0702005076931
0.070204608044
0.0702051493778
0.0702178521298
0.0699658874098
0.0699705425034
0.0699766143078
0.0699819738207
0.0699876098966
0.069993425717
0.0699993641984
0.0700051758952
0.0700105359102
0.0700157587373
0.0700209478496
0.0700264937199
0.0700327380749
0.0700397853525
0.0700473995058
0.0700550580202
0.0700623544107
0.0700688997389
0.0700748074934
0.07008059717
0.0700857264387
0.0700900206557
0.0700944972855
0.0700989981395
0.0701023608553
0.070104654222
0.0701069497595
0.0701098808027
0.0701121217288
0.07011327154
0.0701135606628
0.0701125499897
0.070110539178
0.0701073964697
0.0701030174276
0.0700976992366
0.0700921039131
0.0700863762616
0.070080216533
0.0700733558497
0.0700654954175
0.0700570709066
0.0700482930714
0.0700391042084
0.0700287694118
0.0700162416847
0.070000959484
0.0699839211194
0.0699645795417
0.0699426967475
0.0699191183063
0.069893051311
0.0698652133109
0.0698387074477
0.0698152426214
0.0697944165277
0.0697760884774
0.0697609554391
0.0697502139531
0.0697440229833
0.0697413199007
0.069741528974
0.069743584033
0.069746428418
0.0697492859908
0.0697525077851
0.0697568699086
0.0697624561471
0.0697698814689
0.069779482012
0.0697916649585
0.0698067733158
0.0698237197457
0.0698422876633
0.069859484349
0.06987481408
0.0698907490832
0.0699075280009
0.0699243418149
0.0699401591579
0.0699546309599
0.0699677995815
0.0699797046907
0.0699893308577
0.0699940142717
0.0699920925912
0.0699876165006
0.0699858416435
0.0699873353911
0.0699886010051
0.0699866166904
0.069976699509
0.0699583321401
0.0699274760382
0.0698879919991
0.0698432195409
0.069804359351
0.0697737646459
0.0697500170995
0.0697317863413
0.0697176334811
0.0697093110455
0.069707919603
0.069711693338
0.0697210533668
0.0697352071139
0.0697541202556
0.0697768063117
0.0698009180997
0.0698244281756
0.0698448664135
0.0698663382815
0.0698874581529
0.0699082411077
0.0699284465779
0.069948605442
0.0699693303888
0.0699894076945
0.0700056874383
0.0700157129609
0.0700186671227
0.0700126908367
0.0699951238176
0.0699687460417
0.0699322738897
0.0698943951936
0.0698651499743
0.0698510730288
0.0698475139349
0.06984757426
0.0698505372259
0.0698546083674
0.0698618543043
0.0698780145027
0.0699062431273
0.0699465367776
0.0699961252178
0.0700416919141
0.0700769631627
0.0701029311583
0.0701212633253
0.0701335770934
0.0701429395579
0.0701459762941
0.0701411511517
0.070131228844
0.0701091466208
0.0700864096293
0.0700712528007
0.0700652647254
0.0700665576074
0.0700724492221
0.0700811865788
0.0700953897303
0.0701150025825
0.0701499719333
0.0701827288087
0.0702092195548
0.0702253956588
0.0702329329651
0.0702353859311
0.070234910929
0.070230244061
0.0702202838572
0.0701996502167
0.0701798565496
0.0701649912727
0.0701550224101
0.0701499951187
0.0701463488486
0.0701479990395
0.0701574366111
0.0701676888184
0.0701770012323
0.0701804836276
0.0701803980554
0.0701790167912
0.070180110611
0.0701839815441
0.0701878589356
0.0701896894575
0.0701888812517
0.0701866767543
0.0701860518792
0.0701889401796
0.0701955866536
0.0702006789033
0.0702054967777
0.0702063009617
0.070223869658
0.069904542902
0.0699095915954
0.0699166270308
0.0699233557391
0.0699312209024
0.0699400540925
0.0699490903829
0.0699575068602
0.0699655915969
0.069973670732
0.0699818498739
0.0699905048874
0.0699998026842
0.0700097362234
0.0700200264985
0.0700300816621
0.0700395503922
0.0700480361235
0.0700559905283
0.070063806442
0.0700705790749
0.070076327984
0.0700822657446
0.0700881300736
0.0700923463712
0.0700946893208
0.0700967063244
0.0700984240339
0.0700985839175
0.0700980318936
0.0700969732455
0.0700952872291
0.070093039627
0.0700900135687
0.0700858472273
0.0700805359757
0.0700741186687
0.0700666822994
0.070057831968
0.070047466255
0.0700353670943
0.0700220847358
0.0700081738899
0.0699940246042
0.0699789723929
0.0699619703077
0.069942584837
0.069922385922
0.069899834446
0.0698748056552
0.0698480613063
0.0698182876867
0.0697862508881
0.0697554162707
0.0697274262988
0.069703024309
0.0696824725693
0.069665571478
0.0696523157022
0.0696427690532
0.0696370355451
0.0696353351992
0.0696368780924
0.0696402078731
0.0696441653042
0.0696488830259
0.0696547051122
0.0696610081627
0.0696680510596
0.0696768509901
0.0696885173211
0.0697041512553
0.0697236511044
0.0697472762942
0.0697714513121
0.0697934818115
0.069815894141
0.0698377523627
0.0698580984946
0.0698765995196
0.0698933519726
0.0699080527864
0.0699213692966
0.0699344466932
0.0699447681969
0.0699484395237
0.0699451957361
0.0699398687507
0.069937370775
0.0699348983313
0.0699302110543
0.0699190349781
0.06989917857
0.0698636222222
0.0698152327561
0.0697586213404
0.0697083590466
0.0696703501471
0.0696438515656
0.0696261557669
0.0696138888979
0.0696073237522
0.0696069408207
0.0696105696588
0.0696192280952
0.0696338529434
0.0696543071539
0.0696787183057
0.0697038610978
0.0697281268458
0.0697500232238
0.06977730908
0.06980679376
0.0698377315325
0.0698662331956
0.0698925535694
0.0699166385596
0.0699379786967
0.0699551694616
0.0699661836236
0.0699694202353
0.0699636672826
0.0699461673042
0.0699180214475
0.0698782766031
0.0698331713926
0.0697956609148
0.0697756847837
0.0697685447722
0.0697682917528
0.0697736702688
0.0697815737293
0.0697939418648
0.0698156513427
0.0698491241378
0.0698943074588
0.0699504612141
0.0700019050532
0.0700410159996
0.0700694102057
0.0700910578371
0.0701075959894
0.0701224029579
0.0701293629218
0.0701257914821
0.0701158037954
0.0700915645978
0.0700669673896
0.0700484110229
0.0700401082769
0.0700400436763
0.0700457471248
0.0700563856588
0.070074945421
0.0700997154687
0.0701394639343
0.0701772622844
0.0702070149631
0.0702244375515
0.0702322936546
0.0702353955709
0.070235561148
0.0702307847663
0.0702196158058
0.070197318877
0.0701751178753
0.0701580380524
0.0701454840853
0.0701380733926
0.0701340085989
0.0701360702591
0.0701470844157
0.0701603007138
0.0701713358212
0.0701749119843
0.0701738912446
0.0701713285773
0.0701715746511
0.0701752609666
0.070179229125
0.0701816386639
0.0701818655892
0.0701815325755
0.070183644194
0.0701884731074
0.0701959882463
0.0702012652724
0.0702068840294
0.0702079426148
0.0702304415996
0.0698436252269
0.0698496998669
0.0698581270802
0.0698667865348
0.0698778619869
0.0698900051172
0.0699023113645
0.0699134071494
0.0699244097401
0.0699356672155
0.0699468583558
0.0699580507196
0.0699693926636
0.0699809418714
0.0699925825742
0.0700038357624
0.0700145939969
0.070024846331
0.0700348985934
0.0700446916504
0.0700535453608
0.0700615141009
0.0700692236371
0.070076492561
0.0700817183119
0.0700843122058
0.0700858527376
0.0700861118455
0.0700848193179
0.0700827025535
0.0700800707693
0.0700771802089
0.0700740610314
0.0700707684055
0.0700667924982
0.0700615980137
0.0700550530648
0.0700469811789
0.0700368885239
0.0700247023504
0.0700099016361
0.0699925545735
0.0699728721183
0.0699516423819
0.0699291483503
0.069905387953
0.0698805696366
0.0698566200571
0.0698318509803
0.0698053294508
0.069776656345
0.0697443219525
0.0697088799909
0.069673979233
0.0696417666906
0.0696132264696
0.069589373727
0.0695711075915
0.0695576810922
0.0695476471174
0.069539580102
0.0695344013967
0.0695320719287
0.0695311305264
0.0695319633372
0.0695356370107
0.0695432894911
0.0695535310845
0.0695644055594
0.0695756937036
0.0695881906269
0.0696032344401
0.0696225679476
0.069648251126
0.0696783516066
0.0697085935216
0.0697390589487
0.0697684431294
0.0697944323338
0.0698174061012
0.0698380599558
0.0698559075522
0.069870902662
0.0698849337681
0.0698981946989
0.0699069033024
0.0699080472498
0.0699031313501
0.0698965986331
0.0698883268498
0.0698774683224
0.0698613123347
0.0698380962496
0.0697984996404
0.0697427078652
0.0696763658842
0.0696164444256
0.0695712188679
0.069541020198
0.0695229430057
0.0695126879185
0.069508285236
0.0695083109577
0.0695110784977
0.0695186296064
0.0695323366947
0.0695521591403
0.069576109373
0.0696016318177
0.069628512932
0.0696561301067
0.0696929587321
0.0697345548039
0.0697775900334
0.0698156855515
0.0698479356806
0.0698740638795
0.069894687357
0.069910448246
0.0699209335677
0.0699234819006
0.0699171376847
0.0698991277409
0.0698683031087
0.0698257533132
0.0697730196808
0.0697272370026
0.0697004878338
0.0696890706454
0.0696873645318
0.0696949310755
0.0697078338432
0.0697271599542
0.0697549150396
0.0697933257744
0.0698414143307
0.0699033995
0.069961327189
0.0700058873597
0.0700394108112
0.0700660928013
0.0700884385618
0.0701094758875
0.0701214291319
0.0701202933455
0.0701104547479
0.070081756528
0.0700518600439
0.0700270692261
0.0700153124277
0.070014222233
0.0700213250874
0.0700358966089
0.0700584764685
0.0700862473245
0.0701292058429
0.0701724144495
0.0702068840693
0.0702277869017
0.0702375337333
0.0702418764063
0.0702425051994
0.0702371362803
0.0702242373793
0.0701995459548
0.0701740778141
0.0701546316871
0.0701409613107
0.0701320084947
0.0701261170394
0.0701276514189
0.0701384323993
0.0701529323244
0.0701655422634
0.0701698066975
0.0701688139779
0.0701660300449
0.0701657767791
0.070168732488
0.0701713127831
0.0701731747299
0.0701741995548
0.0701764122694
0.0701825223775
0.0701900467874
0.0701983375286
0.0702035409513
0.0702094340518
0.0702102406991
0.0702365196219
0.0697847377488
0.0697932275939
0.0698045915796
0.0698160155213
0.0698303951653
0.0698454428406
0.0698607714224
0.0698752450995
0.0698893058829
0.0699030635704
0.0699164367091
0.069929248038
0.0699416666866
0.0699539109664
0.0699660790899
0.0699780445274
0.06998997607
0.0700017826854
0.0700133439264
0.070024621416
0.0700354659129
0.0700452334032
0.0700538340082
0.0700619426136
0.0700680609582
0.0700710453113
0.0700721466643
0.0700718373921
0.0700700759154
0.0700668560951
0.070062588726
0.0700575680763
0.0700525702013
0.070047869498
0.0700426896931
0.0700370570138
0.0700308857254
0.0700237578391
0.070014589394
0.0700027140088
0.0699872396906
0.0699680113417
0.0699450610736
0.0699190908214
0.0698906482486
0.0698607385958
0.0698294321276
0.0697985748744
0.069768271173
0.0697371636623
0.0697044670086
0.0696695631376
0.0696319525783
0.069594546336
0.0695594902204
0.0695275379664
0.0694994250759
0.0694765160213
0.0694593124961
0.0694468844285
0.0694384114932
0.0694328064119
0.0694282477331
0.0694247416416
0.0694234125598
0.0694240251733
0.0694279420932
0.0694377259254
0.0694542122023
0.0694736604259
0.0694924517847
0.0695107679447
0.0695305901092
0.0695558849108
0.0695885290245
0.0696264318099
0.0696660591206
0.0697038608656
0.0697365014557
0.069764071815
0.0697884023231
0.0698099984863
0.0698280967203
0.0698432391019
0.0698564864934
0.0698671039546
0.0698716232802
0.0698688098014
0.0698607288693
0.0698471067286
0.0698294045336
0.0698067637906
0.0697786412094
0.0697352392439
0.0696738121629
0.0696002912475
0.0695332704036
0.0694821848971
0.0694478165529
0.0694274889539
0.0694174138592
0.069414292389
0.069413972507
0.0694152047564
0.0694210101877
0.0694326939599
0.0694510377973
0.0694748592845
0.0695029665209
0.0695358065048
0.0695721667355
0.0696194328628
0.0696719025175
0.0697247368149
0.0697702114146
0.0698065666837
0.0698331927242
0.0698516281031
0.0698646461881
0.0698741759089
0.0698760546399
0.0698690493495
0.0698510277615
0.0698181071566
0.0697725884662
0.0697133364795
0.0696614811859
0.0696300902272
0.0696157996649
0.0696125290185
0.069620255165
0.0696353879195
0.0696597964511
0.0696925233703
0.0697354848566
0.0697870342386
0.0698557012256
0.0699212851456
0.0699741960656
0.0700153818365
0.0700482533824
0.0700754437197
0.0701004062228
0.0701153837782
0.0701150241598
0.0701045381019
0.0700719978849
0.0700367475833
0.0700068428794
0.069993053953
0.0699916871298
0.0700009132738
0.0700186277346
0.070043534182
0.0700725977126
0.0701176057384
0.0701654428684
0.0702051862349
0.0702305240216
0.0702427538546
0.070247827511
0.0702482462593
0.070242551987
0.0702285906793
0.0702021883103
0.0701735326311
0.0701522719595
0.0701386026815
0.0701301287975
0.0701233712523
0.0701238042728
0.0701321814114
0.0701451869235
0.0701586683869
0.0701639968134
0.0701636072961
0.0701617622758
0.0701618428696
0.0701636947195
0.0701640811887
0.0701640987134
0.0701654936928
0.0701705722677
0.0701807247366
0.0701911857306
0.070200629545
0.0702057608221
0.0702116268791
0.0702120151685
0.0702417754928
0.0697326798173
0.0697438252587
0.0697579904207
0.0697721314014
0.0697886470024
0.069805865021
0.0698234518962
0.069841051997
0.0698580144843
0.0698742641394
0.0698897576054
0.0699040147844
0.0699172533984
0.069929896266
0.0699423748621
0.0699549592483
0.0699679128001
0.0699808098448
0.0699932330412
0.0700053174153
0.0700170699545
0.0700272699844
0.070035849315
0.0700442539902
0.070050993989
0.0700546857991
0.0700565979366
0.070057200624
0.0700563521291
0.0700535843521
0.0700488304581
0.0700428736621
0.0700361547028
0.0700286887501
0.0700202831927
0.07001137779
0.0700027353685
0.0699947930397
0.0699866618543
0.0699767859254
0.0699627618451
0.0699437977478
0.0699199687939
0.0698921110987
0.0698609348722
0.0698273665239
0.0697917945925
0.0697546587559
0.0697164392376
0.0696767939091
0.069636152742
0.069594870906
0.0695536317149
0.0695150493355
0.0694801051927
0.0694475987448
0.0694180699252
0.0693925965082
0.0693709101906
0.0693528998923
0.0693398487901
0.0693318819118
0.0693275301307
0.0693247913221
0.0693231585904
0.0693227220561
0.0693240768905
0.0693300143013
0.0693449399221
0.0693688374479
0.0693974883382
0.0694254018704
0.0694514576985
0.0694787822722
0.0695113506134
0.0695524948565
0.0695982090598
0.0696435961419
0.069683642493
0.0697169257777
0.0697452126919
0.069770547823
0.0697924273105
0.0698096727365
0.0698224679091
0.0698321870763
0.06983703016
0.0698355543323
0.0698273566955
0.0698107937332
0.0697880255834
0.0697593738529
0.0697250209846
0.069676891113
0.0696100094031
0.0695307021793
0.0694583645773
0.069403180702
0.0693653416695
0.0693423645783
0.0693310820931
0.0693278333483
0.0693262684532
0.0693256745627
0.0693303560439
0.0693400460466
0.0693566213825
0.0693803755709
0.0694118357452
0.0694514227356
0.0694966770619
0.069552599206
0.0696140151631
0.0696744407094
0.0697249689788
0.0697639293713
0.0697912389919
0.0698088603468
0.0698201847244
0.0698289337707
0.0698301131246
0.0698222219916
0.0698042881316
0.0697698078483
0.0697212849622
0.0696563485307
0.0695976964179
0.0695633056488
0.0695485111988
0.0695458422843
0.0695549491465
0.0695704580979
0.0695939639884
0.0696274500269
0.0696735535259
0.0697295629142
0.0698064007193
0.0698824669159
0.0699463200255
0.0699965368523
0.0700358428087
0.0700665778848
0.0700927329884
0.0701083183479
0.0701066735975
0.0700944896356
0.0700590018376
0.0700199041892
0.0699871910534
0.069972203257
0.0699705094223
0.069981380832
0.0700008860191
0.0700264293503
0.0700557659078
0.0701024976467
0.0701550497862
0.0702004365637
0.0702298866204
0.0702445110089
0.0702509512138
0.0702517648612
0.0702458842342
0.0702305839215
0.0702028380689
0.0701711930251
0.0701482091288
0.070134805998
0.0701276626115
0.070121852504
0.0701213579961
0.0701270194317
0.070138276043
0.0701513735445
0.0701576926925
0.07015879795
0.0701585061607
0.070159294858
0.070160046251
0.070158502727
0.0701563015633
0.0701575019307
0.0701649891488
0.0701783240529
0.0701913886746
0.0702023740304
0.0702081922638
0.0702145726649
0.0702150939247
0.0702479598812
0.0696903409985
0.0697037243987
0.0697194678634
0.0697353669557
0.0697526675808
0.069770641034
0.0697893291828
0.0698083736842
0.0698278886161
0.069847028401
0.0698649540797
0.0698812819596
0.0698960771743
0.0699098350747
0.0699231476685
0.0699365515237
0.0699504327705
0.0699642430458
0.0699772149331
0.0699894277131
0.0700006937219
0.0700096297093
0.0700169291644
0.0700245234079
0.0700308655806
0.0700348323506
0.0700380821778
0.0700407889215
0.0700418378794
0.0700404867807
0.0700362661076
0.0700300503089
0.0700228856075
0.0700145925097
0.0700047506557
0.0699931918242
0.0699802889008
0.0699673758428
0.0699551004985
0.0699431429713
0.0699301885749
0.0699142407375
0.0698928926438
0.0698661048925
0.0698348664298
0.0697998797204
0.0697617532822
0.0697211614251
0.0696775024936
0.0696312661385
0.069582875678
0.0695333385257
0.0694840606358
0.069438163261
0.0694000431444
0.0693687949892
0.0693416860764
0.069317173478
0.0692956740263
0.0692768585115
0.0692607627016
0.0692476458808
0.0692378218048
0.0692317906805
0.0692295288857
0.0692302407226
0.069233587584
0.0692397412424
0.069251791039
0.0692732817957
0.0693055665854
0.0693426518102
0.0693779826093
0.0694112769948
0.0694460550828
0.0694883443126
0.0695374504764
0.0695879062517
0.0696351150125
0.069675653039
0.0697092830304
0.0697379543357
0.0697622285721
0.0697808055213
0.0697934860746
0.069801704194
0.0698051983148
0.0698035729844
0.0697951927728
0.069777765407
0.0697520718851
0.0697187676649
0.0696785499699
0.0696254800439
0.0695529599555
0.0694679943459
0.0693900258006
0.0693305283101
0.0692894663639
0.0692645351101
0.0692522992366
0.0692483333816
0.0692455366287
0.0692435739002
0.0692469679551
0.0692539368831
0.0692679085515
0.0692911890222
0.0693256923479
0.0693715904335
0.0694256546809
0.069489624105
0.0695582274336
0.0696238661543
0.0696779663823
0.0697189974202
0.0697482642241
0.0697673973097
0.0697792467547
0.0697881934479
0.0697890433411
0.0697809294853
0.0697638331941
0.0697286653545
0.0696766006802
0.0696047940576
0.0695380323688
0.0694992397123
0.0694841845403
0.069483381227
0.0694959321013
0.0695138344594
0.0695340638441
0.0695628358823
0.0696086971449
0.069670146049
0.0697575736471
0.0698469335699
0.0699227016269
0.0699816596221
0.0700265372914
0.0700595790801
0.0700855382956
0.070100043585
0.0700960969188
0.0700815644163
0.0700438839272
0.0700020432197
0.069967691609
0.0699518524472
0.0699497613864
0.0699613028325
0.069980562567
0.0700054371231
0.0700352188808
0.0700840560924
0.070141999461
0.0701936018143
0.0702286991106
0.0702463564496
0.0702547635035
0.0702563209508
0.0702504294679
0.0702333469882
0.070204031495
0.0701680601969
0.0701424842097
0.0701293827519
0.0701236201482
0.0701185400076
0.0701179873886
0.0701217943172
0.0701316990104
0.0701439620233
0.0701514873549
0.0701544413589
0.0701554669198
0.0701580525591
0.0701579693301
0.0701553191914
0.0701516492193
0.0701524278943
0.070161100584
0.070176022066
0.0701907209545
0.0702030481251
0.0702097898114
0.0702173706222
0.0702189167693
0.0702549654483
0.0696570157931
0.0696719381761
0.0696886319868
0.0697053559802
0.0697227677481
0.0697402303485
0.0697585274328
0.0697776605429
0.0697983895705
0.0698194794481
0.0698395338811
0.0698579310322
0.0698749720068
0.0698908518626
0.0699060147984
0.0699210735534
0.0699363031348
0.0699511500263
0.0699648160443
0.0699773586084
0.0699879792866
0.0699953640843
0.0700013357148
0.0700078185232
0.0700129744114
0.0700158716593
0.0700182500196
0.0700215397241
0.0700242555799
0.0700245078011
0.0700217686157
0.0700163408891
0.0700097696438
0.0700025956951
0.0699937761345
0.0699823616422
0.0699683400296
0.0699521522813
0.0699344828355
0.0699158853667
0.0698969344912
0.069877622006
0.0698574580567
0.0698347433381
0.0698068005867
0.0697729104083
0.0697339841936
0.0696909823633
0.0696444968523
0.0695949316901
0.0695432237044
0.0694891863806
0.069433432576
0.0693787681929
0.0693310328156
0.0692930287715
0.0692651206347
0.0692443677242
0.0692269184151
0.0692107892194
0.069195091683
0.0691789367453
0.0691636672181
0.0691524150809
0.0691468451345
0.0691476126089
0.0691540929383
0.069163834313
0.0691772211742
0.0691966708673
0.0692255922581
0.0692641377564
0.0693063108512
0.0693469853305
0.0693871414325
0.0694329052719
0.0694860360924
0.0695406271994
0.0695934899273
0.0696411328761
0.0696808609078
0.0697122530354
0.0697367144616
0.0697543852907
0.0697663747273
0.0697734737213
0.0697754084015
0.0697732095081
0.0697647684909
0.069746836658
0.069719231819
0.0696820357874
0.0696366766124
0.0695793535218
0.0695021419265
0.0694123243174
0.0693289119947
0.0692644040893
0.069218972824
0.0691913288122
0.0691788136413
0.0691755477566
0.0691725656716
0.0691692665829
0.0691699117033
0.0691734110258
0.0691850378805
0.0692081065173
0.0692447008056
0.0692951609406
0.0693569326686
0.0694299116987
0.0695072795151
0.0695793081709
0.069637834397
0.0696810418982
0.069711437821
0.0697312867764
0.0697437659049
0.0697535257268
0.0697548603696
0.0697479555525
0.0697324927874
0.0696973479244
0.0696416190669
0.0695626771444
0.0694870321453
0.0694402524546
0.0694211221804
0.0694212950153
0.0694379754479
0.0694599283733
0.0694803112348
0.0695063889423
0.0695506954663