/*--------------------------------*- C++ -*----------------------------------*\
  =========                 |
  \\      /  F ield         | OpenFOAM: The Open Source CFD Toolbox
   \\    /   O peration     | Website:  https://openfoam.org
    \\  /    A nd           | Version:  8
     \\/     M anipulation  |
\*---------------------------------------------------------------------------*/
FoamFile
{
    version     2.0;
    format      ascii;
    class       volScalarField;
    location    "0.000332";
    object      T;
}
// * * * * * * * * * * * * * * * * * * * * * * * * * * * * * * * * * * * * * //

dimensions      [0 0 0 1 0 0 0];

internalField   nonuniform List<scalar> 
22800
(
349.995303836
349.986733077
349.978308977
349.968825626
349.957537039
349.943630134
349.925634463
349.904203238
349.879561204
349.853705729
349.828426036
349.80323593
349.778845605
349.754964722
349.731665055
349.708940988
349.686500506
349.664219276
349.643061236
349.623629273
349.606330406
349.591343548
349.578460498
349.566603129
349.555511085
349.545347481
349.537021561
349.531618076
349.527847449
349.524140131
349.519699045
349.515091285
349.51178548
349.50993809
349.509175815
349.509788649
349.512325103
349.517358299
349.525376266
349.53646055
349.550033287
349.565803492
349.583637315
349.603950027
349.628736629
349.658977107
349.692879757
349.729685444
349.769899334
349.813946641
349.863946563
349.920060714
349.981627414
350.04446266
350.10318472
350.156908749
350.204309123
350.244116574
350.274983038
350.297005196
350.310719324
350.316621882
350.31808342
350.317509307
350.314541387
350.308318246
350.297232698
350.279565101
350.253585018
350.218190297
350.171466445
350.112731268
350.041662882
349.962782453
349.886539627
349.812615352
349.740729618
349.662436288
349.578391057
349.495758877
349.418886993
349.350893644
349.294619948
349.250282164
349.219788317
349.205471767
349.205963733
349.215764474
349.231745926
349.253634786
349.287078983
349.33637803
349.412415035
349.514560549
349.655917183
349.821565119
349.96967518
350.076209941
350.145561127
350.186739061
350.207889575
350.216782116
350.21886923
350.213992389
350.200593085
350.175908458
350.141521914
350.095539613
350.031036008
349.946105708
349.836579343
349.711455231
349.571656257
349.442477644
349.340790152
349.272748954
349.236741709
349.224261308
349.227218392
349.241132754
349.26334675
349.299356574
349.35959422
349.453901473
349.585850781
349.767148752
349.951501283
350.087774036
350.174148392
350.216806341
350.230499832
350.225456947
350.201636787
350.15434194
350.07723704
349.958571023
349.810172026
349.64877863
349.53807299
349.476113998
349.451084851
349.448578381
349.460799184
349.490918712
349.544878943
349.634231706
349.760399726
349.911647494
350.032760162
350.105637959
350.140535436
350.151212025
350.143520194
350.113087388
350.047789219
349.951375742
349.8272212
349.729194872
349.671764274
349.646106356
349.641334019
349.651163392
349.685471972
349.756667338
349.853604689
349.96025294
350.02681356
350.057405075
350.065679695
350.059248957
350.038722766
349.999305494
349.941082424
349.891222284
349.862302901
349.851205553
349.85130837
349.86025212
349.879409656
349.904136301
349.927867564
349.940475086
349.940619036
349.93474627
349.925756799
349.917982585
349.91149589
349.911794612
349.914723569
349.928754439
349.988437828
349.967838138
349.950846073
349.933379688
349.915326345
349.895255415
349.871561517
349.843983871
349.813904102
349.783934934
349.755676203
349.728766088
349.702278607
349.676685736
349.651903995
349.627672521
349.603696109
349.580175378
349.557580411
349.536137068
349.515969865
349.497591388
349.481069049
349.465704692
349.450953484
349.437363538
349.426027942
349.417439361
349.410740261
349.404612041
349.397883851
349.390031506
349.382624763
349.37639942
349.371916857
349.369989376
349.37064684
349.373893055
349.38121674
349.393279767
349.409743693
349.430615805
349.455513567
349.484552564
349.51774053
349.553328861
349.591341034
349.631455141
349.6751632
349.72191618
349.77419492
349.832194157
349.896452212
349.961938358
350.022096926
350.075727042
350.122758934
350.163679219
350.197342114
350.222484476
350.238671981
350.246209167
350.248372469
350.247989347
350.244662414
350.237120514
350.224175292
350.204706095
350.177823369
350.14235649
350.096154594
350.037987535
349.969181563
349.895068915
349.817108445
349.738633654
349.66167328
349.585454269
349.506884926
349.427879434
349.352757981
349.283800191
349.221830237
349.168928738
349.129991027
349.108125324
349.103244809
349.109469955
349.124692359
349.148466788
349.184262297
349.236049995
349.316697655
349.424462558
349.573593401
349.74677311
349.900174351
350.010096041
350.080269684
350.120170449
350.138873044
350.145478088
350.146674409
350.142140494
350.13008921
350.109040535
350.078711035
350.036129936
349.979756008
349.907277215
349.80766065
349.686136154
349.541146185
349.400712742
349.286062157
349.20566968
349.164213182
349.154749674
349.162344783
349.178977229
349.202419699
349.239144103
349.295303701
349.38862059
349.523247028
349.712040358
349.904784546
350.047412761
350.139252045
350.186322789
350.203626522
350.199317236
350.176404321
350.131902122
350.058833562
349.944071663
349.797174114
349.636778503
349.527688505
349.467485508
349.443190507
349.438953786
349.449912354
349.4816747
349.536559261
349.628591049
349.756750327
349.913571641
350.036693729
350.111045264
350.149571134
350.165429162
350.158043051
350.126159531
350.055523028
349.955756063
349.826476284
349.727765919
349.671940883
349.648723801
349.646429489
349.657540089
349.693535931
349.76490541
349.861606942
349.968399007
350.033537579
350.060976716
350.067084247
350.061338981
350.040887887
350.002377872
349.942553976
349.891812997
349.860417725
349.847942905
349.84753125
349.857426182
349.878498309
349.905661165
349.930901982
349.942283913
349.939782817
349.933130858
349.924098296
349.91868381
349.914659065
349.916356031
349.918718172
349.933531038
349.979397384
349.941930353
349.909479586
349.876017536
349.842023188
349.806232453
349.767032732
349.725304311
349.683699584
349.643934856
349.605837785
349.569048414
349.533584293
349.499621638
349.466813988
349.434894574
349.403704524
349.373305463
349.343847104
349.315377379
349.288146099
349.262381408
349.238910267
349.217697511
349.197695885
349.179328647
349.163648278
349.15099362
349.14019167
349.130386246
349.120977038
349.110809335
349.100534507
349.091934174
349.085627223
349.082630039
349.083014371
349.086440954
349.094942199
349.109484805
349.130021622
349.157149063
349.190620714
349.230053153
349.274499247
349.321581095
349.370194484
349.421060363
349.475913565
349.534659159
349.600507229
349.674038456
349.753630628
349.831881638
349.902369119
349.962768395
350.012710408
350.054226014
350.088909896
350.11657406
350.13602698
350.147183146
350.151792117
350.152436401
350.148488016
350.137148115
350.117020611
350.088058799
350.051225974
350.00725758
349.955544442
349.894871875
349.823311324
349.743218077
349.656798786
349.571484237
349.487243468
349.404342405
349.318034278
349.230804459
349.147746265
349.072102486
349.005338126
348.948222311
348.901336799
348.867365529
348.852314091
348.853839438
348.867262258
348.895474985
348.939186753
349.001382506
349.094035817
349.215915499
349.379929115
349.566851185
349.730153461
349.84783539
349.92477506
349.969054751
349.989911951
349.999491962
350.005283325
350.0054699
349.99871838
349.982439661
349.954189744
349.910670445
349.851729721
349.774501739
349.669998453
349.53546134
349.378926537
349.227568475
349.107068798
349.028957688
348.992433207
348.98546361
348.993142244
349.010646954
349.036388031
349.072983116
349.129530443
349.228839815
349.378726637
349.587856358
349.798779683
349.955872427
350.058889278
350.112568469
350.133153046
350.129468973
350.108039539
350.066924974
349.998946956
349.89003197
349.744236675
349.583496709
349.472613995
349.409902335
349.382283738
349.374283934
349.384952899
349.419445579
349.479953252
349.581549727
349.72134566
349.889518109
350.024706037
350.108974408
350.156913174
350.175920073
350.167557315
350.135327957
350.062742148
349.962475783
349.829321656
349.726053601
349.667431484
349.643380985
349.640830121
349.652752361
349.689356449
349.761995067
349.861555388
349.971996164
350.039742899
350.067166945
350.072800742
350.066644461
350.044579994
350.004873542
349.942341891
349.889237814
349.855960398
349.841265241
349.839098833
349.850356288
349.875295653
349.907709673
349.937721969
349.949754967
349.944253776
349.933930609
349.921802059
349.914636069
349.907818884
349.909820359
349.910654964
349.933215078
349.978310437
349.931631833
349.884901637
349.834092557
349.779957537
349.72201051
349.661453956
349.602407404
349.54706768
349.495201801
349.445579744
349.39778352
349.351036799
349.304434952
349.257838581
349.211607368
349.166654745
349.122611802
349.079866436
349.039461069
349.000479592
348.963140443
348.930074697
348.901237095
348.87476084
348.850343602
348.829197287
348.811790497
348.796467488
348.783264845
348.771443763
348.759011746
348.747983609
348.73971732
348.734653096
348.73309198
348.734436269
348.739211724
348.749480235
348.767094329
348.792891034
348.828252048
348.873548347
348.928193862
348.989825382
349.055014366
349.12196892
349.192910106
349.267751122
349.347883989
349.437421165
349.53658046
349.64066011
349.73856855
349.825692939
349.899328751
349.957167514
349.99980048
350.031489718
350.055906593
350.074557002
350.08943241
350.098571254
350.100811461
350.096510267
350.081248076
350.052433753
350.00977389
349.95585376
349.893597687
349.825078163
349.751347567
349.669102199
349.578807683
349.480560412
349.377718423
349.274622363
349.170028559
349.063832507
348.959858978
348.862064698
348.773900923
348.698865726
348.638647307
348.589014213
348.547438728
348.524170156
348.519236826
348.53092396
348.563417092
348.618337263
348.695785536
348.806038982
348.949629593
349.141007878
349.357825737
349.545300825
349.682015997
349.774812217
349.831244354
349.858887333
349.871318209
349.877500322
349.87640718
349.869161575
349.851316391
349.818540251
349.766518453
349.692129535
349.594821041
349.469486447
349.319398265
349.153605546
348.997361317
348.872957471
348.788426909
348.744237898
348.731947187
348.73828802
348.756140763
348.783698637
348.823403421
348.889065229
349.003680948
349.178384127
349.418118498
349.65989854
349.838331691
349.956256947
350.020627653
350.047566935
350.045168238
350.023800284
349.981615436
349.912398863
349.804332854
349.65340911
349.487982665
349.370710612
349.301854029
349.269068213
349.258741249
349.27074465
349.310393568
349.380230211
349.495260403
349.651240856
349.838514643
349.993152702
350.096532663
350.157592577
350.178934985
350.171556904
350.142294081
350.072555085
349.972052817
349.835672873
349.72729084
349.662986546
349.632987409
349.627091394
349.638875979
349.676818389
349.75341259
349.859386889
349.975153049
350.043497843
350.07078077
350.076339396
350.066711166
350.042782471
350.004110732
349.940847798
349.881897904
349.844204228
349.824765884
349.818529191
349.828866533
349.854881273
349.891329168
349.927314043
349.944311847
349.941927373
349.934858511
349.925048574
349.916669968
349.906484175
349.90606772
349.904558533
349.934225074
349.974005486
349.918167506
349.860515147
349.795135233
349.723555193
349.646127076
349.567306839
349.493666327
349.42536148
349.361386857
349.300283842
349.240930283
349.181519775
349.121105378
349.059617506
348.998158999
348.9379042
348.878878339
348.822255715
348.769010642
348.717707901
348.669204345
348.626639266
348.589648752
348.555351136
348.522650316
348.494285489
348.470645904
348.449821272
348.432530595
348.417759675
348.405708354
348.397891578
348.394324484
348.394185493
348.396447171
348.401118162
348.40956232
348.423628393
348.445975032
348.477964898
348.520987755
348.575911743
348.642779872
348.719153184
348.801509481
348.887971113
348.981676292
349.080482965
349.185790323
349.301267092
349.427453004
349.558878634
349.68002166
349.784289149
349.871775526
349.940187862
349.990363228
350.024536458
350.046624559
350.061487539
350.073396044
350.081532366
350.082812392
350.07752925
350.060915645
350.029082663
349.980156616
349.915458439
349.83676605
349.746782514
349.649507294
349.547090029
349.442437299
349.331602883
349.20919797
349.079529686
348.945219269
348.811822031
348.683895834
348.565145994
348.45847074
348.368684503
348.301006984
348.252194851
348.214857182
348.189375524
348.180269054
348.188035247
348.219367343
348.281557371
348.376535538
348.512277854
348.686631341
348.915624856
349.173423975
349.394076525
349.556689304
349.671552341
349.745653585
349.784489384
349.800446993
349.805729906
349.801939691
349.78825344
349.761281744
349.71626475
349.648156623
349.552702107
349.43073825
349.279519129
349.110366363
348.926051906
348.754284592
348.615835911
348.518309741
348.462334808
348.442910167
348.447724676
348.465638545
348.495376646
348.542297155
348.623970867
348.76292367
348.973146327
349.252023723
349.528370173
349.73018936
349.863322589
349.941109158
349.980226224
349.983954846
349.968118815
349.925729185
349.847988845
349.723388537
349.552932652
349.366971575
349.235922416
349.157220747
349.120258844
349.109829511
349.126340592
349.174799437
349.256895015
349.388728642
349.565744171
349.781406447
349.961433086
350.08542797
350.157392019
350.181999967
350.176180578
350.149993965
350.081638298
349.975612788
349.828820901
349.7094229
349.635936919
349.598956191
349.590982222
349.604315673
349.644801838
349.725211975
349.839680257
349.967537292
350.045260682
350.075344776
350.079304331
350.068619341
350.043069374
350.002534321
349.936643228
349.870174149
349.825200889
349.798539241
349.788179144
349.796679218
349.822216818
349.861212588
349.903984977
349.929736546
349.934217559
349.931764935
349.924288763
349.915518014
349.903098771
349.900967915
349.897960833
349.933929398
349.969473968
349.903785904
349.835110896
349.75623338
349.669892059
349.577661928
349.488316093
349.403883205
349.325102433
349.25072971
349.177896617
349.105677778
349.032919906
348.958919415
348.883526503
348.807810258
348.733323498
348.661124221
348.592591065
348.528227485
348.467283552
348.410458333
348.359597766
348.314571442
348.271926943
348.230631775
348.194647823
348.163364861
348.135626562
348.113376635
348.096270413
348.086113015
348.082441689
348.083582529
348.088461968
348.097067377
348.108976475
348.124916385
348.146563988
348.176578276
348.216093969
348.266213153
348.327150758
348.399472673
348.48237846
348.574787622
348.675294922
348.786758292
348.908557185
349.039718282
349.181489126
349.334615709
349.494167477
349.642686011
349.76919348
349.87187171
349.951955098
350.013634551
350.058625031
350.08828893
350.103958815
350.109981918
350.109947051
350.104131157
350.089688884
350.064909377
350.029394407
349.980225908
349.914498347
349.830144241
349.727686286
349.609726307
349.480365047
349.349152109
349.215689356
349.07129753
348.914394553
348.750303025
348.588125047
348.433829659
348.292451268
348.166885771
348.060583745
347.980395237
347.928728933
347.898569559
347.880829862
347.872465316
347.878443005
347.90528174
347.968486106
348.075960304
348.237426714
348.447030514
348.71608593
349.018278813
349.278777529
349.470869129
349.60858265
349.700730873
349.753324747
349.776244893
349.781204482
349.775101818
349.755972473
349.719073952
349.660697428
349.575642917
349.460107636
349.315129494
349.13944496
348.946382648
348.73450949
348.537194609
348.378924335
348.264212264
348.19363932
348.164596353
348.164971986
348.181258278
348.214027451
348.270432877
348.371380858
348.537598386
348.789450816
349.112557904
349.428730878
349.655471885
349.803345519
349.892745216
349.944963614
349.956481738
349.948460794
349.909332827
349.822700387
349.672918655
349.470402699
349.248179548
349.092237596
349.000617889
348.961032776
348.953734634
348.975750445
349.037653258
349.138757665
349.29100384
349.490835739
349.738568355
349.944471209
350.083336383
350.162889263
350.1933123
350.191925072
350.168005123
350.096045207
349.979173446
349.814800438
349.677856452
349.594518476
349.552268041
349.543572191
349.558610655
349.601860145
349.686290246
349.810541833
349.95414979
350.046447506
350.083122294
350.088380879
350.076282684
350.048342308
350.003183023
349.92928222
349.852317563
349.798941634
349.766440784
349.753650966
349.760660426
349.785229025
349.824901294
349.871377599
349.904525147
349.918422333
349.924210093
349.920560823
349.91250079
349.899048599
349.895652274
349.891544688
349.93233703
349.963429733
349.884916389
349.804755715
349.714998694
349.620083995
349.520107088
349.423838072
349.331362917
349.24215035
349.154843815
349.068475317
348.982641531
348.896931731
348.810744705
348.723780572
348.636492293
348.550665545
348.46767708
348.388675323
348.314626475
348.245961842
348.181954153
348.122689421
348.069662749
348.020262689
347.973036654
347.930474351
347.892230881
347.858424443
347.831529028
347.812860957
347.802197372
347.798610027
347.799327267
347.804141798
347.815779631
347.835195511
347.862476078
347.896827426
347.938861921
347.98917392
348.048737929
348.117630925
348.196769167
348.286387467
348.387121119
348.49692162
348.617552252
348.752124557
348.900197402
349.061620998
349.23817071
349.425033212
349.60476339
349.761031814
349.889949438
349.990350729
350.06614668
350.121721508
350.158725901
350.179590983
350.188121455
350.187152894
350.176350887
350.151793388
350.112752452
350.061574433
350.000533257
349.929340648
349.842950183
349.73583352
349.605208052
349.453934576
349.291571378
349.124446552
348.950249589
348.763841903
348.570743671
348.382390235
348.203824486
348.041627486
347.900833395
347.782980058
347.691974479
347.632511581
347.603760281
347.593735165
347.590832332
347.597731882
347.623116735
347.686312949
347.801980182
347.983518128
348.224643948
348.531969812
348.878611475
349.181938453
349.40664959
349.56826451
349.676757194
349.74132542
349.772400184
349.780195735
349.773103171
349.750225881
349.704469956
349.633095609
349.5320497
349.399248436
349.23576518
349.038868429
348.819610855
348.576357169
348.349771109
348.167999781
348.033946665
347.94789621
347.90694397
347.899011789
347.91288951
347.94890537
348.015291096
348.135455617
348.328250393
348.619302996
348.988171676
349.350279866
349.608364428
349.775665969
349.877132292
349.936287731
349.950349177
349.944128922
349.904128583
349.809765384
349.639490031
349.409020688
349.15165579
348.968693563
348.863927647
348.821754127
348.815709444
348.839718626
348.912167557
349.030194589
349.201513218
349.42496432
349.704271838
349.937699616
350.091923562
350.181154441
350.219677703
350.221668515
350.197519835
350.117641928
349.985402601
349.800680698
349.64304908
349.548362467
349.499631941
349.487574049
349.501877015
349.547640319
349.639027346
349.777160791
349.938397902
350.04728301
350.095680987
350.10658941
350.094317734
350.062435602
350.009103376
349.922338219
349.830578149
349.768115835
349.73237521
349.719873203
349.726770711
349.750419355
349.789387995
349.836262227
349.873986962
349.89779556
349.913682291
349.913704904
349.906531643
349.892184632
349.887273317
349.882325021
349.928883944
349.954866753
349.860801549
349.771322876
349.67531383
349.577057231
349.474817002
349.37231556
349.270919733
349.169430058
349.068083923
348.967997819
348.869390752
348.772456112
348.676543071
348.580665954
348.484559767
348.389489002
348.296420238
348.206889781
348.122845891
348.045322825
347.972352329
347.903975316
347.843470656
347.788766074
347.737526892
347.691474258
347.650271206
347.614331535
347.586335396
347.567558525
347.557208461
347.55222386
347.550447394
347.551311645
347.558539247
347.576817812
347.608791769
347.654306167
347.711333334
347.776438289
347.848644902
347.928968615
348.018781234
348.118385501
348.228640378
348.349329162
348.479906298
348.621782129
348.776576023
348.947398667
349.137232101
349.345468486
349.556634416
349.746006484
349.905865826
350.03412293
350.129950773
350.195901032
350.235676332
350.25697169
350.266781129
350.269266508
350.26272975
350.238819159
350.193850554
350.130478297
350.052745922
349.964839166
349.867097663
349.754329183
349.616937036
349.450720541
349.260219563
349.054810772
348.841337352
348.617692935
348.394902255
348.183849169
347.98467816
347.804093357
347.649826628
347.523988555
347.426939186
347.361479746
347.330094431
347.322358953
347.324362176
347.335012892
347.363997213
347.43089746
347.553985839
347.750077576
348.017070788
348.358428732
348.747508496
349.093727461
349.352627028
349.539187051
349.664721439
349.741398213
349.781412008
349.792691371
349.78421522
349.758173207
349.70511418
349.621870374
349.504784038
349.354500649
349.173451347
348.956124322
348.707484623
348.43062651
348.172775825
347.964521235
347.809726416
347.709910533
347.660515148
347.645745998
347.65731787
347.696619224
347.773149071
347.912487929
348.131164715
348.45903763
348.872255947
349.276619294
349.568908925
349.760611036
349.878237936
349.945937566
349.96001942
349.948002858
349.898752702
349.793424417
349.605876314
349.351696134
349.065985235
348.864002649
348.750286851
348.704501084
348.695704884
348.717265422
348.792685654
348.921285756
349.109685686
349.357349535
349.668950596
349.933381104
350.107695686
350.208448917
350.256268994
350.259309751
350.230301523
350.139143768
349.98968582
349.78469177
349.606255725
349.49815864
349.441705904
349.427174566
349.441018385
349.488524711
349.585747991
349.73851617
349.917773002
350.043813133
350.106070491
350.126283873
350.11705147
350.081944577
350.018792338
349.919511846
349.811417562
349.738651863
349.700788
349.689857557
349.697100236
349.720354572
349.759028165
349.805757015
349.845905742
349.878748571
349.902589045
349.905478895
349.899279717
349.885057785
349.879029019
349.873938455
349.925857781
349.947013462
349.838845088
349.741014124
349.640584729
349.539959892
349.436160017
349.329218063
349.218549354
349.104602591
348.989112722
348.876372855
348.767442274
348.661957817
348.558738687
348.456230913
348.353423968
348.250531259
348.148181239
348.048351371
347.953712037
347.86525624
347.780513986
347.70116711
347.631752394
347.569834321
347.513112761
347.464275808
347.424015749
347.390889811
347.364251773
347.346114106
347.336102504
347.331544546
347.330550043
347.332508069
347.338805123
347.352601228
347.378669217
347.421605811
347.482926298
347.559956279
347.649616762
347.747952975
347.853717941
347.967670444
348.090670302
348.223145577
348.365819449
348.517812174
348.681335363
348.859301183
349.055698877
349.272051044
349.497262494
349.709468786
349.896395211
350.051376302
350.17008211
350.252932012
350.303449901
350.327691405
350.333280037
350.329025902
350.318348033
350.296490501
350.25614721
350.194723511
350.110809519
350.009012317
349.894084126
349.76795527
349.621770932
349.445482811
349.234401737
348.995796609
348.741699593
348.478059336
348.222765366
347.989579246
347.774401559
347.580083158
347.413727503
347.279803351
347.178565758
347.111076009
347.077345662
347.067964709
347.071689077
347.087709397
347.124677581
347.199027243
347.330706488
347.539238823
347.827881604
348.197693735
348.623714313
349.00872032
349.299644011
349.510671917
349.654129655
349.743311273
349.792855416
349.807886955
349.798311
349.767174509
349.705162203
349.610229176
349.47904197
349.313497025
349.115505035
348.87807623
348.599781326
348.287574402
347.995684524
347.75992672
347.585229968
347.475462162
347.422015702
347.404143024
347.415681459
347.459907062
347.54783067
347.707421014
347.952479993
348.313592178
348.765793184
349.207791729
349.530177429
349.745023061
349.880118503
349.963427841
349.981619654
349.960799235
349.895781837
349.773429871
349.570399915
349.297754715
348.988478346
348.77017026
348.647759878
348.596655048
348.58334806
348.601603128
348.676903596
348.812377616
349.016618183
349.288835526
349.631905533
349.927594506
350.125043791
350.238966927
350.294844883
350.295055239
350.258055564
350.155532066
349.990418934
349.76666466
349.568426982
349.448395069
349.385121255
349.36927745
349.38317841
349.432278907
349.533159101
349.699131329
349.893789074
350.035366519
350.109225203
350.139297109
350.133651816
350.09872538
350.02716123
349.916753802
349.79421926
349.71160223
349.670821032
349.660259046
349.669956557
349.693457567
349.733155477
349.781199967
349.823548494
349.862997755
349.890613329
349.894729684
349.889001873
349.875049379
349.86971613
349.865835304
349.922464049
349.941904869
349.823657637
349.717921543
349.612809258
349.509003942
349.401763553
349.290256901
349.172119599
349.046767221
348.916222497
348.790707915
348.672718489
348.561069945
348.452985727
348.345843626
348.237901722
348.12846292
348.018198431
347.909345369
347.805309045
347.706414802
347.610664831
347.521724861
347.443726879
347.373127132
347.308168011
347.252420233
347.209526183
347.177832139
347.153963713
347.137713675
347.130118154
347.128650267
347.131904747
347.139165406
347.14967682
347.165425057
347.190501533
347.22885958
347.28318305
347.355800351
347.448221299
347.559551765
347.685921508
347.820851409
347.960946619
348.107363693
348.262234145
348.426880282
348.602787587
348.793291132
348.999892334
349.224116662
349.455220791
349.672563275
349.86826883
350.038929201
350.180016797
350.284657967
350.351919678
350.38333621
350.387546769
350.377305032
350.355682842
350.326525075
350.287808222
350.234187727
350.155031301
350.049446016
349.920450014
349.773784754
349.611783652
349.424265023
349.199483999
348.936944211
348.649483445
348.350566243
348.063210184
347.807383881
347.578965632
347.375370241
347.198626591
347.05493483
346.947471891
346.877962582
346.842953015
346.831867615
346.837378959
346.859349779
346.90438526
346.987294639
347.127621972
347.347353988
347.654879615
348.049284384
348.507314137
348.926793774
349.245858017
349.478523281
349.638421886
349.740199989
349.797535921
349.815796185
349.805768193
349.769675555
349.700130166
349.595752227
349.453121556
349.27319537
349.057012702
348.798687201
348.493220036
348.148980552
347.827364892
347.568470463
347.377062727
347.257840953
347.199502582
347.179633788
347.193467959
347.244965268
347.346314369
347.526248958
347.797396892
348.188326849
348.674689808
349.149499404
349.49327389
349.723926513
349.874145609
349.973046712
350.000151888
349.977440596
349.901831861
349.763495278
349.544750055
349.253061334
348.920199247
348.683842056
348.550138955
348.491638518
348.473103325
348.489137607
348.563152524
348.703751873
348.925415994
349.222465637
349.594397796
349.918782333
350.136421606
350.263897787
350.327067645
350.325968138
350.282353008
350.171214151
349.993145309
349.753604054
349.534818386
349.401553551
349.331990608
349.315937171
349.331430667
349.383000498
349.485149864
349.660288075
349.867735087
350.02252139
350.105768771
350.143132539
350.139929458
350.106181504
350.029763057
349.910929346
349.776289162
349.684544881
349.641258716
349.631248521
349.642689837
349.667708262
349.708901613
349.758333762
349.803407013
349.847948195
349.876820316
349.880859898
349.875238962
349.862307358
349.859934962
349.857947737
349.917464181
349.940883812
349.816862209
349.703024837
349.591513268
349.481704159
349.369374479
349.252370584
349.127123306
348.991758286
348.848396824
348.71176636
348.586119494
348.46893444
348.356147222
348.24428105
348.131221979
348.016176896
347.899268482
347.783500818
347.672468065
347.565013273
347.461106184
347.366276014
347.282477483
347.205350392
347.133642524
347.07090943
347.020674955
346.981541124
346.952421554
346.935561665
346.930436823
346.933536944
346.944057713
346.959713503
346.977779456
346.999484245
347.028845838
347.06973292
347.124671238
347.194731371
347.281328301
347.386958462
347.51453586
347.663012253
347.824881005
347.991932037
348.163049861
348.342426833
348.532925054
348.737035122
348.956380141
349.1918535
349.432809986
349.655280807
349.854010828
350.026654708
350.172314912
350.289783139
350.373345515
350.41798339
350.426921716
350.414796671
350.385498633
350.347722556
350.306953245
350.25843973
350.184967581
350.079163471
349.940351292
349.775092171
349.590988338
349.387201881
349.151623059
348.87555076
348.566786601
348.241045585
347.926770632
347.648236602
347.403890113
347.190284647
347.004364437
346.851105042
346.735540277
346.662063999
346.625267981
346.615114846
346.623913749
346.650807476
346.704257321
346.795448078
346.943712769
347.171478745
347.493197869
347.909206038
348.396611927
348.84846405
349.194154836
349.445947225
349.618432235
349.728687401
349.792119803
349.812990249
349.802361651
349.762200918
349.687537329
349.579397802
349.43156592
349.241772102
349.007795466
348.725652587
348.392154824
348.019573462
347.676382714
347.401990242
347.199082253
347.06940607
347.002182817
346.978677849
346.995104385
347.054251027
347.16995175
347.368069863
347.662209868
348.078133928
348.593638498
349.098387521
349.459758362
349.69845349
349.855773552
349.966586119
350.002620781
349.985666872
349.912719486
349.767976078
349.535970122
349.222189211
348.862502277
348.60426352
348.45581199
348.386576212
348.361228613
348.377770534
348.454999491
348.602076658
348.840651799
349.161839384
349.559240656
349.907088863
350.140582546
350.280073709
350.349780609
350.350323344
350.304700825
350.19046462
350.002777064
349.748695657
349.507188303
349.360559436
349.285479686
349.268786581
349.286140663
349.340744997
349.443613672
349.624087054
349.840777646
350.00670144
350.098285626
350.138472976
350.138791134
350.105917322
350.026687816
349.901653781
349.757535926
349.657251247
349.610695564
349.600664584
349.613213943
349.640751067
349.683813403
349.735702394
349.784510914
349.83367806
349.861841199
349.864151972
349.858611709
349.846880425
349.846701166
349.844915431
349.905435577
349.940979456
349.815239771
349.695687411
349.575915434
349.458249305
349.339172321
349.216011403
349.084167299
348.941866736
348.789661988
348.642528251
348.508468936
348.384392115
348.265487106
348.147735655
348.028559486
347.907286744
347.784478264
347.664070217