/*--------------------------------*- C++ -*----------------------------------*\
  =========                 |
  \\      /  F ield         | OpenFOAM: The Open Source CFD Toolbox
   \\    /   O peration     | Website:  https://openfoam.org
    \\  /    A nd           | Version:  8
     \\/     M anipulation  |
\*---------------------------------------------------------------------------*/
FoamFile
{
    version     2.0;
    format      ascii;
    class       volVectorField;
    location    "0.000332";
    object      U;
}
// * * * * * * * * * * * * * * * * * * * * * * * * * * * * * * * * * * * * * //

dimensions      [0 1 -1 0 0 0 0];

internalField   nonuniform List<vector> 
22800
(
(427.011390539 0.381497019082 0)
(427.058577525 0.979816949493 0)
(427.096606819 1.48956033778 0)
(427.148682383 1.90011197499 0)
(427.202609677 2.2089627112 0)
(427.263931347 2.41958713279 0)
(427.321173549 2.54544999772 0)
(427.402941143 2.59291111696 0)
(427.482610398 2.56822839092 0)
(427.562071815 2.48472847038 0)
(427.633100697 2.32799521856 0)
(427.693078295 2.0859758578 0)
(427.750185361 1.75502162385 0)
(427.808544373 1.3273277111 0)
(427.866284274 0.797723444743 0)
(427.9202026 0.165998309627 0)
(427.963993175 -0.567041948578 0)
(427.994446075 -1.40254251345 0)
(428.01018456 -2.34498752882 0)
(428.011888295 -3.40019255679 0)
(428.016559539 -4.57005936834 0)
(428.03169888 -5.84904357695 0)
(428.051926049 -7.22563509044 0)
(428.06145977 -8.68730399917 0)
(428.070449005 -10.2231201274 0)
(428.067652073 -11.8256977966 0)
(428.080521875 -13.4893099116 0)
(428.103344299 -15.2085106807 0)
(428.129492538 -16.9779208301 0)
(428.133997073 -18.7955143127 0)
(428.125027899 -20.6639350775 0)
(428.106806835 -22.5589839378 0)
(428.097816867 -24.4304967311 0)
(428.085709496 -26.2756937732 0)
(428.081677248 -28.100796816 0)
(428.068374224 -29.9172456546 0)
(428.047724338 -31.7359101349 0)
(428.018112757 -33.5576877804 0)
(427.992710346 -35.3700561507 0)
(427.95947673 -37.1429135502 0)
(427.928897797 -38.8280258025 0)
(427.890701575 -40.3670731071 0)
(427.849217281 -41.7052684002 0)
(427.804470063 -42.810244539 0)
(427.754998536 -43.6695488876 0)
(427.661646826 -44.2585362027 0)
(427.555702418 -44.6124705844 0)
(427.428253586 -44.7837281839 0)
(427.282729777 -44.7949692594 0)
(427.172647064 -44.6769450092 0)
(427.061593988 -44.4610800734 0)
(426.965487223 -44.1203603022 0)
(426.87747905 -43.6166526287 0)
(426.804370316 -42.9052724789 0)
(426.751794225 -41.9558248593 0)
(426.712732116 -40.7448586443 0)
(426.688056184 -39.2506139576 0)
(426.667180996 -37.4543628424 0)
(426.64465927 -35.3405006163 0)
(426.621793542 -32.904538205 0)
(426.592017906 -30.1502491357 0)
(426.540707579 -27.0885349022 0)
(426.526648475 -23.7350987088 0)
(426.525487543 -20.09058243 0)
(426.565072786 -16.1238146794 0)
(426.62841781 -11.9799450657 0)
(426.740844589 -8.07948411968 0)
(426.870342831 -4.59346274341 0)
(427.014906235 -1.54866499169 0)
(427.16112551 1.04913751567 0)
(427.288212137 3.21083539983 0)
(427.408423179 4.94891874634 0)
(427.493582962 6.28009380959 0)
(427.544000877 7.22935993403 0)
(427.605032114 7.85570234458 0)
(427.720524059 8.18879033295 0)
(427.896685106 8.24800804984 0)
(428.006294439 8.07894552017 0)
(428.101016509 7.71309960571 0)
(428.189413811 7.07767194027 0)
(428.265233394 6.05796017075 0)
(428.330250946 4.53514355001 0)
(428.377780574 2.41326821066 0)
(428.380983174 -0.374873767811 0)
(428.363343579 -3.88618259431 0)
(428.384090065 -8.17396672349 0)
(428.452023959 -13.0782961546 0)
(428.495455841 -17.822283472 0)
(428.500830271 -21.6634507327 0)
(428.469950341 -24.5770922047 0)
(428.403025172 -26.6191094577 0)
(428.31893184 -27.8975566621 0)
(428.252877174 -28.5790766979 0)
(428.153140441 -28.7992774782 0)
(428.064381013 -28.7116143941 0)
(428.033638386 -28.3429053767 0)
(428.011203318 -27.5813262813 0)
(427.920673143 -26.337637385 0)
(427.784197694 -24.5631570717 0)
(427.639123198 -22.1951715711 0)
(427.494718058 -19.15082702 0)
(427.421911805 -15.3459539134 0)
(427.400825089 -10.7006986127 0)
(427.42817172 -5.21443407568 0)
(427.515640552 0.434834452809 0)
(427.669559426 5.15848057025 0)
(427.880441487 8.9225772763 0)
(428.1131427 11.8286837559 0)
(428.296621763 13.9898623665 0)
(428.402577332 15.4857895481 0)
(428.42297579 16.380224908 0)
(428.433092018 16.7343884627 0)
(428.507547098 16.722992422 0)
(428.490959554 16.3090269705 0)
(428.510509198 15.2152610022 0)
(428.616649262 13.2707116073 0)
(428.76599365 10.3587986016 0)
(428.878658441 6.35740811134 0)
(428.959697891 1.19070515269 0)
(428.939538418 -4.23555033756 0)
(428.88505719 -8.24491453169 0)
(428.806132309 -10.7993318293 0)
(428.717571713 -12.1861628762 0)
(428.63976696 -12.8159344412 0)
(428.502512234 -12.9618365151 0)
(428.349578667 -12.7613103599 0)
(428.378323032 -12.0449170885 0)
(428.385353564 -10.391606131 0)
(428.344977399 -7.49086585762 0)
(428.222796115 -3.21792338019 0)
(428.146909759 2.51337071937 0)
(428.03431772 9.08114765424 0)
(428.035147737 14.6700952056 0)
(428.064513734 18.4535320898 0)
(428.12361287 20.6136436798 0)
(428.128749888 21.5279978207 0)
(428.211815175 21.6696833043 0)
(428.173196608 21.437077453 0)
(428.105733494 20.6000687759 0)
(428.068355603 18.8341323518 0)
(428.051372854 15.8893973092 0)
(428.085548697 11.5715688585 0)
(428.057742265 6.53469326094 0)
(428.041931564 2.52347559487 0)
(428.038396088 0.00961382676022 0)
(428.055117281 -1.33342292204 0)
(428.081374096 -1.79045125214 0)
(428.075956792 -1.80201796087 0)
(428.160661547 -1.34001427099 0)
(428.187829142 0.101140448875 0)
(428.200483625 2.96464527092 0)
(428.191647547 7.17663801278 0)
(428.178461012 11.3047939695 0)
(428.190346516 13.7063785692 0)
(428.185012119 14.6942558134 0)
(428.25967594 14.8035172418 0)
(428.311291038 14.5602997125 0)
(428.332650202 13.8566299544 0)
(428.372468831 12.4522254561 0)
(428.423686552 10.0720581534 0)
(428.469907836 6.90968252819 0)
(428.538847511 4.10602845268 0)
(428.568516473 2.46140277902 0)
(428.614425742 1.71941807336 0)
(428.55818498 1.55077031232 0)
(428.560434177 1.66814686908 0)
(428.560237237 2.32909620315 0)
(428.542673609 3.87207942202 0)
(428.476432586 6.30780060541 0)
(428.409003686 8.83308744416 0)
(428.322936133 10.4243759204 0)
(428.227559586 11.244043 0)
(428.088529915 11.5547584666 0)
(427.968972773 11.4879216103 0)
(427.874376685 11.0780099494 0)
(427.772817093 10.1792780806 0)
(427.679314401 8.76072795648 0)
(427.563447623 7.10066855428 0)
(427.38899006 5.69498154753 0)
(427.182007262 4.5314565842 0)
(426.997878889 3.4162231902 0)
(426.84091044 2.28980577977 0)
(426.75302817 1.14962122586 0)
(426.738668302 -0.0377126533403 0)
(426.806824474 -1.35457409064 0)
(426.910915151 -2.92634679999 0)
(426.961007083 -4.72786323395 0)
(427.136888707 -6.52158253856 0)
(427.204724656 -8.07651364371 0)
(427.355473519 -9.18851905165 0)
(427.021480023 0.311061216469 0)
(427.10601594 0.837121900565 0)
(427.159484217 1.30812629983 0)
(427.231190231 1.69770342491 0)
(427.30144706 1.99179574885 0)
(427.379622768 2.19417200914 0)
(427.4566451 2.31636138298 0)
(427.559842615 2.35335911629 0)
(427.660327954 2.31929236338 0)
(427.759612634 2.22876747096 0)
(427.862563377 2.07628763396 0)
(427.96660343 1.84375330009 0)
(428.065440965 1.51054620357 0)
(428.155886206 1.07257176137 0)
(428.237686252 0.534970951589 0)
(428.303897041 -0.100060119875 0)
(428.356090484 -0.83259207336 0)
(428.388774949 -1.66628245182 0)
(428.408422146 -2.60495922512 0)
(428.418245669 -3.65082844675 0)
(428.43812458 -4.80217351974 0)
(428.468538493 -6.05603421879 0)
(428.513893657 -7.40563390926 0)
(428.555901497 -8.83900772555 0)
(428.592406798 -10.3420110563 0)
(428.619989765 -11.9067658196 0)
(428.653753171 -13.5296822719 0)
(428.694448643 -15.2098438014 0)
(428.739709131 -16.946775226 0)
(428.764892766 -18.742431165 0)
(428.771057898 -20.5933886741 0)
(428.772178942 -22.4634306433 0)
(428.776810413 -24.3049424563 0)
(428.775297915 -26.1198203349 0)
(428.774843295 -27.9189272336 0)
(428.760065327 -29.7148894133 0)
(428.742515447 -31.515785546 0)
(428.707285883 -33.3208005 0)
(428.666956296 -35.1181206107 0)
(428.605542855 -36.8795818855 0)
(428.540119923 -38.5619118202 0)
(428.458560135 -40.1108301425 0)
(428.364358762 -41.4665417812 0)
(428.257496614 -42.5727687554 0)
(428.132031764 -43.398463782 0)
(428.016059255 -43.9781352234 0)
(427.905551403 -44.3503027529 0)
(427.784139515 -44.5535645505 0)
(427.627257904 -44.579089256 0)
(427.511261034 -44.4562252242 0)
(427.387318325 -44.2208212219 0)
(427.277936414 -43.8462829103 0)
(427.155793053 -43.3109005698 0)
(427.049725934 -42.5739595438 0)
(426.953135578 -41.6064736942 0)
(426.858178831 -40.3857509744 0)
(426.779144402 -38.8967431509 0)
(426.72881616 -37.1302918681 0)
(426.699382714 -35.0712222278 0)
(426.683626476 -32.7018915233 0)
(426.667761117 -30.0179478402 0)
(426.640583805 -27.0249831936 0)
(426.642031536 -23.7285620676 0)
(426.656289729 -20.1299295568 0)
(426.707427566 -16.2117854829 0)
(426.787210548 -12.116780766 0)
(426.914179315 -8.24886401899 0)
(427.072547437 -4.77975503777 0)
(427.26262121 -1.74942755854 0)
(427.464907993 0.825756483701 0)
(427.653868753 2.95020506276 0)
(427.815444038 4.64231230459 0)
(427.943571125 5.93200588464 0)
(428.072221967 6.8547550564 0)
(428.157149629 7.4474974808 0)
(428.237283394 7.75472607248 0)
(428.380307873 7.81771925413 0)
(428.4864272 7.67227061387 0)
(428.638727563 7.32263308165 0)
(428.785955296 6.66785353397 0)
(428.91670614 5.62070718947 0)
(429.025013314 4.08747222702 0)
(429.088288999 1.98146337735 0)
(429.106374749 -0.758943842969 0)
(429.100096351 -4.16872895379 0)
(429.113053166 -8.31929554872 0)
(429.181879812 -13.0989270876 0)
(429.238878912 -17.7835679321 0)
(429.245240299 -21.6032867498 0)
(429.217206386 -24.5153871629 0)
(429.139340425 -26.5628309601 0)
(429.012019643 -27.8467888768 0)
(428.887304928 -28.5189538037 0)
(428.788846794 -28.7581618128 0)
(428.697953932 -28.6651620175 0)
(428.662841998 -28.2889079881 0)
(428.638094892 -27.560632247 0)
(428.550770105 -26.4009208862 0)
(428.396277877 -24.7251338271 0)
(428.20092439 -22.4472067843 0)
(427.989557711 -19.4680040589 0)
(427.853157566 -15.7008357448 0)
(427.816504193 -11.0852450243 0)
(427.826371734 -5.64879961877 0)
(427.923097637 -0.0349143888662 0)
(428.106319593 4.72276289035 0)
(428.3436373 8.57337850883 0)
(428.614927171 11.5559459554 0)
(428.877120419 13.7426205106 0)
(429.084887291 15.2048101691 0)
(429.173474995 15.9997686896 0)
(429.213741107 16.27246805 0)
(429.198666615 16.1865591214 0)
(429.116327419 15.7007391356 0)
(429.068887392 14.5982082072 0)
(429.11858616 12.7459404948 0)
(429.264847278 10.006451794 0)
(429.481463608 6.16645644099 0)
(429.626148325 1.111209155 0)
(429.646043364 -4.28351218043 0)
(429.592909245 -8.31068611358 0)
(429.498751998 -10.9179752371 0)
(429.32961251 -12.3989065415 0)
(429.155309422 -13.0720468213 0)
(428.949890183 -13.2470132954 0)
(428.798546835 -13.003919353 0)
(428.829109507 -12.2007311467 0)
(428.853034808 -10.473464693 0)
(428.804796924 -7.56223519346 0)
(428.643176584 -3.3099213588 0)
(428.502001454 2.4022846116 0)
(428.312523504 8.96738958716 0)
(428.265514014 14.5580085768 0)
(428.255382152 18.3467712065 0)
(428.277698449 20.5015779026 0)
(428.240787959 21.3746937964 0)
(428.279319506 21.4955428818 0)
(428.186409624 21.2043771386 0)
(428.086662148 20.3023464331 0)
(428.030864867 18.5147199819 0)
(427.999802136 15.598001688 0)
(428.01195291 11.3443866984 0)
(428.02836861 6.35667062391 0)
(427.987568293 2.35921882956 0)
(428.02089206 -0.154054407295 0)
(428.070601302 -1.48995755215 0)
(428.108316205 -1.97807966006 0)
(428.098153026 -1.976143047 0)
(428.144954034 -1.47990109433 0)
(428.1355009 -0.00232103449733 0)
(428.155656428 2.86006303646 0)
(428.11997732 7.04461922819 0)
(428.124583697 11.1390499063 0)
(428.154626996 13.5584925003 0)
(428.141547644 14.6118135219 0)
(428.171148937 14.8192251305 0)
(428.22967188 14.6060506168 0)
(428.269292831 13.8705480375 0)
(428.349786835 12.3912350025 0)
(428.446381221 9.96485260829 0)
(428.522778481 6.79541025945 0)
(428.60444215 3.99871535707 0)
(428.626430157 2.35935833192 0)
(428.659809253 1.6321965955 0)
(428.61360772 1.46073683011 0)
(428.616550799 1.62254208014 0)
(428.625986334 2.34460301486 0)
(428.616872541 3.94608682506 0)
(428.54533746 6.41789838242 0)
(428.470852977 8.92066839601 0)
(428.403989049 10.4679093053 0)
(428.310369582 11.2271212363 0)
(428.141057091 11.4798324666 0)
(427.977139667 11.4277979236 0)
(427.872985176 11.0666563706 0)
(427.773809165 10.217603713 0)
(427.676616576 8.83101558727 0)
(427.536467341 7.19224463025 0)
(427.329757109 5.79824467834 0)
(427.087296657 4.63581226248 0)
(426.877917102 3.52002356616 0)
(426.70487668 2.39993977549 0)
(426.624894647 1.24226491545 0)
(426.601106228 -0.00359641666434 0)
(426.640914706 -1.40354910231 0)
(426.729876543 -3.06552868516 0)
(426.798349121 -4.95279755908 0)
(427.034969942 -6.74749790433 0)
(427.102676768 -8.2804890539 0)
(427.3343897 -9.31754080477 0)
(427.040646324 0.396172282109 0)
(427.184619276 0.984479190714 0)
(427.274886325 1.48717402877 0)
(427.38048617 1.89238098763 0)
(427.483167396 2.20699594033 0)
(427.583484085 2.4349046726 0)
(427.691333418 2.57474711485 0)
(427.823075779 2.61508168794 0)
(427.953673632 2.57723596706 0)
(428.091629862 2.48094993252 0)
(428.234499587 2.31922917436 0)
(428.373899865 2.07689902129 0)
(428.504152785 1.73947680309 0)
(428.615082417 1.29817058554 0)
(428.708328172 0.751676490683 0)
(428.783800183 0.102913288366 0)
(428.848363315 -0.644476764071 0)
(428.897596459 -1.48912728598 0)
(428.939579261 -2.43128423719 0)
(428.982726356 -3.47182234056 0)
(429.036001732 -4.60787461936 0)
(429.086430875 -5.83654423517 0)
(429.155978787 -7.15238480313 0)
(429.215728196 -8.54679440892 0)
(429.259464969 -10.0066866388 0)
(429.284597523 -11.5265601242 0)
(429.318523173 -13.107544623 0)
(429.36763253 -14.752113449 0)
(429.4234523 -16.4606964797 0)
(429.469298453 -18.2366559555 0)
(429.512711941 -20.0724143523 0)
(429.545327609 -21.9221525308 0)
(429.584961905 -23.7429699052 0)
(429.606862045 -25.5407169905 0)
(429.625198582 -27.3267578404 0)
(429.618319893 -29.1154451268 0)
(429.610688088 -30.9141834921 0)
(429.574048342 -32.715787724 0)
(429.522533591 -34.5028518853 0)
(429.432127695 -36.2466997593 0)
(429.330152757 -37.9109084564 0)
(429.204196147 -39.4484855239 0)
(429.065238811 -40.8039789686 0)
(428.912316271 -41.9252620453 0)
(428.752271827 -42.789851055 0)
(428.601342019 -43.414834755 0)
(428.465089231 -43.8337966254 0)
(428.333611317 -44.0791215588 0)
(428.162455443 -44.1256774648 0)
(428.038245443 -44.0056272292 0)
(427.908795499 -43.7668734667 0)
(427.783363319 -43.3839503581 0)
(427.644964331 -42.8304063865 0)
(427.518261546 -42.0708357245 0)
(427.393892181 -41.0838368112 0)
(427.257831496 -39.8463116716 0)
(427.124217877 -38.3406029822 0)
(427.021430534 -36.5634712197 0)
(426.958515636 -34.5162740721 0)
(426.927263008 -32.1852608782 0)
(426.902129127 -29.5556349783 0)
(426.884065213 -26.6250766318 0)
(426.887768684 -23.3870324606 0)
(426.900494905 -19.8356236439 0)
(426.939604775 -15.957787988 0)
(427.013384016 -11.8942022673 0)
(427.123009557 -8.03701082103 0)
(427.277663781 -4.57043472294 0)
(427.470808952 -1.54298244882 0)
(427.692272532 1.01748540697 0)
(427.923999582 3.1094993956 0)
(428.144355909 4.75414646628 0)
(428.335045694 5.99634215159 0)
(428.524332526 6.87196904079 0)
(428.629380413 7.44387543895 0)
(428.738103434 7.76290309493 0)
(428.918510702 7.82225717465 0)
(429.06676059 7.66529948238 0)
(429.250216902 7.29966797721 0)
(429.412745562 6.62976654257 0)
(429.562226292 5.55659253211 0)
(429.707077995 3.99071328792 0)
(429.840037253 1.88117176638 0)
(429.925516491 -0.803079675591 0)
(429.942315123 -4.11460553474 0)
(429.940113501 -8.12053897309 0)
(429.932764408 -12.7525073476 0)
(429.920713459 -17.3596193863 0)
(429.885193769 -21.1537550227 0)
(429.805217247 -24.0822677206 0)
(429.70827198 -26.1688533953 0)
(429.590727572 -27.5045600628 0)
(429.480786087 -28.2374445108 0)
(429.38895379 -28.5244377548 0)
(429.294450716 -28.4508443903 0)
(429.252412911 -28.0889928209 0)
(429.202818719 -27.379224932 0)
(429.082437462 -26.2478645377 0)
(428.893524588 -24.6080532263 0)
(428.652222555 -22.3566021905 0)
(428.385128008 -19.3852662655 0)
(428.198975516 -15.6164388808 0)
(428.14767231 -10.9971329992 0)
(428.147948826 -5.55875840699 0)
(428.273402689 0.0365749805839 0)
(428.502312754 4.75857428482 0)
(428.794459821 8.56871110011 0)
(429.092839607 11.5134262811 0)
(429.384550591 13.6546747811 0)
(429.629052488 15.048650456 0)
(429.727757643 15.7667182993 0)
(429.725429072 15.9581718785 0)
(429.641883282 15.8321109478 0)
(429.548591066 15.3374084223 0)
(429.531256666 14.2965910943 0)
(429.635574922 12.5691511388 0)
(429.867426947 9.9388567273 0)
(430.141303119 6.18323765522 0)
(430.303979116 1.1734401953 0)
(430.322296171 -4.20808756883 0)
(430.216317086 -8.28282952346 0)
(430.060930909 -10.9565318017 0)
(429.822018028 -12.4630937461 0)
(429.606194952 -13.1396444465 0)
(429.360282652 -13.2903755377 0)
(429.209056309 -13.0095294968 0)
(429.229843062 -12.170346586 0)
(429.258737939 -10.4285407681 0)
(429.192801346 -7.53731751513 0)
(428.996239215 -3.32782015221 0)
(428.80351709 2.3654221133 0)
(428.570806853 8.9437304254 0)
(428.471942012 14.5709468537 0)
(428.414899918 18.3733191057 0)
(428.383675756 20.4975079921 0)
(428.301116855 21.3056566852 0)
(428.313920086 21.389213322 0)
(428.178330518 21.0608965511 0)
(428.040659179 20.1174506462 0)
(427.961385461 18.3046279584 0)
(427.920933184 15.3902480309 0)
(427.903936471 11.1663656812 0)
(427.940841153 6.24385777542 0)
(427.874090368 2.31114636583 0)
(427.907506449 -0.161596506096 0)
(427.954139774 -1.50615063084 0)
(427.99493014 -2.04778749659 0)
(427.971405254 -2.08079674215 0)
(428.015417383 -1.61385168049 0)
(428.016427092 -0.146744597762 0)
(428.038530437 2.71677423352 0)
(427.987827282 6.89485863192 0)
(427.99508956 10.9916732947 0)
(428.03447048 13.4394959098 0)
(428.026369762 14.5388796071 0)
(428.05922487 14.801284329 0)
(428.135680432 14.6052992504 0)
(428.18112433 13.8748544878 0)
(428.269039032 12.3732411674 0)
(428.370091723 9.90074362382 0)
(428.485761235 6.69032173642 0)
(428.600531229 3.88358450959 0)
(428.656586469 2.24890535465 0)
(428.71462595 1.54950795975 0)
(428.68554042 1.40563747894 0)
(428.710009365 1.61525818446 0)
(428.722640487 2.39290662559 0)
(428.71731419 4.04555176602 0)
(428.645928686 6.53822079523 0)
(428.546942555 8.99625712483 0)
(428.473947097 10.4721242293 0)
(428.347650218 11.174960475 0)
(428.142765684 11.4024108142 0)
(427.950218088 11.3504491324 0)
(427.845390318 11.0073916112 0)
(427.737926999 10.1862088378 0)
(427.632111286 8.81835621321 0)
(427.466906815 7.17292485175 0)
(427.198351064 5.75801089899 0)
(426.902306826 4.57947318089 0)
(426.623068565 3.47761057293 0)
(426.406827754 2.38147964143 0)
(426.305318709 1.25635363883 0)
(426.273019818 0.0388697209617 0)
(426.289934444 -1.37526337291 0)
(426.367172312 -3.07637822647 0)
(426.422211906 -5.00499936803 0)
(426.722142704 -6.8278130011 0)
(426.799309994 -8.35534890799 0)
(427.158242246 -9.41074921952 0)
(427.029756424 0.364628896724 0)
(427.237442258 0.965620929767 0)
(427.335154621 1.51595941343 0)
(427.493005673 1.96511130464 0)
(427.638295291 2.3188045427 0)
(427.810521123 2.57150941808 0)
(427.982909427 2.73640548407 0)
(428.170835919 2.79602544879 0)
(428.354841317 2.75000763682 0)
(428.528254304 2.62729971881 0)
(428.699517931 2.43542568702 0)
(428.86427934 2.16651456494 0)
(429.020614924 1.81552576486 0)
(429.162931699 1.37749287613 0)
(429.292475797 0.851373930257 0)
(429.412009448 0.232557253085 0)
(429.528726492 -0.484446189403 0)
(429.624078885 -1.30765026541 0)
(429.727623279 -2.23597349332 0)
(429.835421823 -3.26916163137 0)
(429.935005329 -4.39850046561 0)
(430.012583558 -5.61424715128 0)
(430.111005632 -6.90590227943 0)
(430.192283705 -8.26831100203 0)
(430.253414443 -9.69175521405 0)
(430.279621352 -11.1755204846 0)
(430.326351479 -12.7223048809 0)
(430.388871877 -14.3335723241 0)
(430.453481762 -16.0077928661 0)
(430.522130805 -17.7459153758 0)
(430.591076922 -19.533602019 0)
(430.655934008 -21.3307397866 0)
(430.72036424 -23.1095268277 0)
(430.751215907 -24.8747662854 0)
(430.772983426 -26.6333607532 0)
(430.756954466 -28.3942587697 0)
(430.733563096 -30.1610584877 0)
(430.671238797 -31.9295843043 0)
(430.598239465 -33.6804963551 0)
(430.473022153 -35.3831952245 0)
(430.322423661 -37.0103419308 0)
(430.13404424 -38.5256074444 0)
(429.939527261 -39.8872245403 0)
(429.738761639 -41.0514823384 0)
(429.539289464 -41.9893012773 0)
(429.343909256 -42.6989982675 0)
(429.165289329 -43.1984092021 0)
(429.007304502 -43.5122177532 0)
(428.809387195 -43.5993672743 0)
(428.662188411 -43.4875290527 0)
(428.506506726 -43.2389489502 0)
(428.337590969 -42.837465006 0)
(428.152899228 -42.2583824493 0)
(427.973874085 -41.473764681 0)
(427.801987123 -40.4714067034 0)
(427.618826306 -39.2341113944 0)
(427.422174604 -37.7394122261 0)
(427.230368062 -35.9737227749 0)
(427.081662021 -33.9328167322 0)
(426.981863294 -31.6195861614 0)
(426.912236187 -29.0342795101 0)
(426.907924943 -26.1691472286 0)
(426.908551517 -23.0115545923 0)
(426.945126259 -19.5467207442 0)
(426.989071187 -15.7571366894 0)
(427.086065723 -11.7909376692 0)
(427.207545919 -8.03544379975 0)
(427.379375052 -4.6492943795 0)
(427.585634949 -1.67552547048 0)
(427.827578361 0.853236717062 0)
(428.090239989 2.93122276194 0)
(428.369286877 4.57678821418 0)
(428.636035579 5.83423836716 0)
(428.911969186 6.73597054112 0)
(429.099431885 7.35619043758 0)
(429.250519753 7.7285114943 0)
(429.476356804 7.82991232645 0)
(429.674628126 7.68664330084 0)
(429.864474669 7.30170737657 0)
(430.043156296 6.60666962976 0)
(430.216437672 5.51978168505 0)
(430.398848765 3.96602158298 0)
(430.60895535 1.87817418137 0)
(430.834201799 -0.792477146122 0)
(430.964643742 -4.05637391354 0)
(431.00554726 -7.93256512191 0)
(430.929780446 -12.3759992705 0)
(430.845692756 -16.844748086 0)
(430.722324009 -20.5816300136 0)
(430.576838617 -23.5197740824 0)
(430.44840735 -25.6652577835 0)
(430.338307713 -27.0822198471 0)
(430.228276521 -27.9047983818 0)
(430.103315479 -28.2709949643 0)
(429.946989344 -28.2252516963 0)
(429.81916112 -27.8811616138 0)
(429.679054705 -27.2036559762 0)
(429.487587222 -26.1156024931 0)
(429.265819421 -24.5057542692 0)
(429.002664122 -22.2696765032 0)
(428.712442097 -19.3154419404 0)
(428.499301249 -15.5819266885 0)
(428.432787286 -11.0335914651 0)
(428.450111382 -5.68420370059 0)
(428.624145188 -0.140409624604 0)
(428.927192398 4.56459344293 0)
(429.277968889 8.35754437261 0)
(429.627437677 11.2806775989 0)
(429.934336948 13.3976525751 0)
(430.177343952 14.7709808642 0)
(430.260186497 15.4949555629 0)
(430.229474252 15.6933260429 0)
(430.157154649 15.5578240901 0)
(430.121180897 15.061789205 0)
(430.160860281 14.0905912419 0)
(430.316515681 12.4437871195 0)
(430.57770681 9.88694216018 0)
(430.862839543 6.19659493568 0)
(431.011901131 1.25391045457 0)
(430.986101375 -4.11253985831 0)
(430.792126295 -8.25586081675 0)
(430.555122922 -11.0034263701 0)
(430.277172541 -12.5634117582 0)
(430.062327482 -13.2544272335 0)
(429.801715481 -13.3757756501 0)
(429.647260963 -13.0351246653 0)
(429.64940632 -12.131476872 0)
(429.623200905 -10.3918883085 0)
(429.524282765 -7.566242121 0)
(429.327871596 -3.4273755251 0)
(429.10702299 2.21690110856 0)
(428.863468835 8.77551562006 0)
(428.710024969 14.4207202276 0)
(428.580876044 18.2718572176 0)
(428.477909472 20.4486355764 0)
(428.345815443 21.2742716249 0)
(428.339317207 21.3193505866 0)
(428.185735572 20.9457168983 0)
(428.045186381 19.9679872875 0)
(427.963316032 18.1390509331 0)
(427.93011191 15.2204428209 0)
(427.891490103 10.9943693072 0)
(427.934949626 6.05953132879 0)
(427.825866167 2.09980245536 0)
(427.824652121 -0.39200813139 0)
(427.837242467 -1.73218238325 0)
(427.86620655 -2.25797941255 0)
(427.831228287 -2.27898071998 0)
(427.877013022 -1.7930175363 0)
(427.900229685 -0.322745450906 0)
(427.943078506 2.52242381005 0)
(427.908525209 6.68297692188 0)
(427.919359505 10.7749028863 0)
(427.949063255 13.2279775008 0)
(427.941899781 14.3332264711 0)
(427.99327685 14.6135139866 0)
(428.072371758 14.407378557 0)
(428.112039758 13.6660312954 0)
(428.215778615 12.1525929972 0)
(428.338516105 9.66707702914 0)
(428.507984776 6.45840408941 0)
(428.640368385 3.66949337821 0)
(428.73134848 2.04491553642 0)
(428.812487079 1.36027437157 0)
(428.799902135 1.23064891234 0)
(428.844963417 1.47598402054 0)
(428.86070465 2.32950816108 0)
(428.848684878 4.08077607614 0)
(428.743886168 6.63159065839 0)
(428.600870341 9.06324175206 0)
(428.491174761 10.500183018 0)
(428.325048544 11.1636820024 0)
(428.115663267 11.3628841649 0)
(427.902686041 11.3060842722 0)
(427.773951036 10.9657011125 0)
(427.635115341 10.1630410267 0)
(427.498413254 8.81132893603 0)
(427.310481293 7.166019745 0)
(426.980528416 5.73486455622 0)
(426.619552602 4.56127823721 0)
(426.2668989 3.49816293179 0)
(425.990183673 2.44383694415 0)
(425.810806253 1.31788374821 0)
(425.738982245 0.0455450301818 0)
(425.716042085 -1.44532592028 0)
(425.822320525 -3.2238530249 0)
(425.877053101 -5.2203231834 0)
(426.273081452 -7.05351721699 0)
(426.390331586 -8.57835036157 0)
(426.911327453 -9.60418623868 0)
(427.026930533 0.40414542036 0)
(427.300014286 1.02939109086 0)
(427.419284181 1.59924433806 0)
(427.650249329 2.04011622373 0)
(427.844104258 2.38643192615 0)
(428.071073406 2.6260895682 0)
(428.282684028 2.79225169333 0)
(428.502153567 2.86586992332 0)
(428.719141708 2.82754956537 0)
(428.917609078 2.69346756372 0)
(429.108658139 2.48186086153 0)
(429.293828379 2.1948821714 0)
(429.475730138 1.83272190195 0)
(429.65654214 1.39292718946 0)
(429.840539262 0.868862991174 0)
(430.026084015 0.252754066692 0)
(430.219321082 -0.459297879275 0)
(430.393016071 -1.27392434329 0)
(430.584827468 -2.18018872321 0)
(430.763012934 -3.18282100534 0)
(430.912836856 -4.27203173282 0)
(431.021481019 -5.43795414597 0)
(431.149829468 -6.67199399736 0)
(431.255410098 -7.97931285989 0)
(431.33986456 -9.35257803926 0)
(431.371918127 -10.7906992965 0)
(431.453122867 -12.2958909196 0)
(431.523230025 -13.8735201468 0)
(431.608620589 -15.5157005413 0)
(431.685157018 -17.2186124091 0)
(431.784744537 -18.9671012921 0)
(431.85776103 -20.7362966611 0)
(431.941333668 -22.5006749362 0)
(431.977315175 -24.2596567119 0)
(432.011737304 -26.0129581918 0)
(431.987111379 -27.7580939945 0)
(431.959211566 -29.4911872639 0)
(431.882419804 -31.2049233716 0)
(431.797392258 -32.8864258403 0)
(431.647788279 -34.5103095668 0)
(431.446720004 -36.0518834971 0)
(431.182951073 -37.4816690524 0)
(430.901508228 -38.7746194427 0)
(430.612576526 -39.9044445231 0)
(430.334238548 -40.8548559058 0)
(430.067393816 -41.6112973597 0)
(429.820810906 -42.1753491724 0)
(429.607062148 -42.55943558 0)
(429.378239369 -42.7056807115 0)
(429.189978875 -42.6203964401 0)
(428.99764219 -42.3871434801 0)
(428.791662269 -41.9967526335 0)
(428.577806962 -41.4189962319 0)
(428.348142596 -40.6342964666 0)
(428.112433158 -39.631648512 0)
(427.881401904 -38.4026419772 0)
(427.647623637 -36.9251607516 0)
(427.416427599 -35.1821399573 0)
(427.197609304 -33.164738976 0)
(427.014170341 -30.8687658908 0)
(426.866506771 -28.2929097325 0)
(426.822736388 -25.4500777534 0)
(426.800330932 -22.3455445593 0)
(426.842325624 -18.9609240572 0)
(426.914609578 -15.2642490415 0)
(427.067056209 -11.4070834307 0)
(427.25011646 -7.77322400544 0)
(427.476750749 -4.49941338239 0)
(427.707770419 -1.60401871727 0)
(427.963248274 0.895371130609 0)
(428.226353369 2.97569239118 0)
(428.505859719 4.62881868199 0)
(428.800972455 5.88117903398 0)
(429.148522936 6.75703221872 0)
(429.460074913 7.34039597255 0)
(429.724876775 7.67828148675 0)
(430.025076777 7.7419948867 0)
(430.278938097 7.55176097964 0)
(430.508538574 7.13590186331 0)
(430.743800928 6.42481628243 0)
(430.994970771 5.34511447372 0)
(431.261414322 3.83373588727 0)
(431.556142953 1.8204341333 0)
(431.903438126 -0.772224584638 0)
(432.190288491 -3.98053330719 0)
(432.291424393 -7.78506390476 0)
(432.219630757 -12.0930050352 0)
(432.050210208 -16.3969850497 0)
(431.829702707 -20.0210327363 0)
(431.58154335 -22.9179932679 0)
(431.392145178 -25.1048008991 0)
(431.254172428 -26.6337095103 0)
(431.130422464 -27.5868877158 0)
(430.937048459 -28.0499473158 0)
(430.694172783 -28.0160037888 0)
(430.461424849 -27.6251096446 0)
(430.199566845 -26.8833820461 0)
(429.916280019 -25.7546504564 0)
(429.649670501 -24.1441684545 0)
(429.378375326 -21.9365425914 0)
(429.088787945 -19.0277006581 0)
(428.872365337 -15.3449935683 0)
(428.777720127 -10.8576063022 0)
(428.758651545 -5.59919600302 0)
(428.921077427 -0.161632626304 0)
(429.228438337 4.45549025343 0)
(429.595925572 8.17608594414 0)
(429.973833057 11.039384314 0)
(430.300508676 13.1129753477 0)
(430.567227695 14.4772603155 0)
(430.696022103 15.2319075961 0)
(430.744165513 15.4700176688 0)
(430.785883024 15.3438105994 0)
(430.839641003 14.8755870647 0)
(430.967638278 13.9171788625 0)
(431.185945611 12.2860231748 0)
(431.471276738 9.77102529043 0)
(431.735301692 6.15343337087 0)
(431.862484751 1.29377338967 0)
(431.772283159 -4.04414919299 0)
(431.483965014 -8.24102856466 0)
(431.169590786 -11.0622552086 0)
(430.856748207 -12.6987951721 0)
(430.645269778 -13.4349727138 0)
(430.361241081 -13.5659178258 0)
(430.206003836 -13.1860349478 0)
(430.135515694 -12.2052293835 0)
(430.00423873 -10.3915180077 0)
(429.816164507 -7.53881233114 0)
(429.596635092 -3.44476794562 0)
(429.341106605 2.09689487664 0)
(429.108276623 8.5540821787 0)
(428.936743582 14.1291163334 0)
(428.780896991 17.9532297693 0)
(428.636506861 20.1490893317 0)
(428.460769559 21.0292795447 0)
(428.434432936 21.1080575807 0)
(428.258152328 20.7734152899 0)
(428.120289159 19.8296375584 0)
(428.03588266 18.0184311837 0)
(428.014552764 15.0804635006 0)
(427.941782799 10.8096422006 0)
(427.985763537 5.81433367975 0)
(427.850571869 1.78010552556 0)
(427.811305494 -0.775324729672 0)