/*--------------------------------*- C++ -*----------------------------------*\
  =========                 |
  \\      /  F ield         | OpenFOAM: The Open Source CFD Toolbox
   \\    /   O peration     | Website:  https://openfoam.org
    \\  /    A nd           | Version:  8
     \\/     M anipulation  |
\*---------------------------------------------------------------------------*/
FoamFile
{
    version     2.0;
    format      ascii;
    class       volScalarField;
    location    "0.000664";
    object      H2;
}
// * * * * * * * * * * * * * * * * * * * * * * * * * * * * * * * * * * * * * //

dimensions      [0 0 0 0 0 0 0];

internalField   nonuniform List<scalar> 
22800
(
1
1
1
1
1
1
1
1
1
1
1
1
1
1
1
1
1
1
1
1
1
1
1
1
1
1
1
1
1
1
1
1
1
1
1
1
1
1
1
1
1
1
1
1
1
1
1
1
1
1
1
1
1
1
1
1
1
1
1
1
1
1
1
1
1
1
1
1
1
1
1
1
1
1
1
1
1
1
1
1
1
1
1
1
1
1
1
1
1
1
1
1
1
1
1
1
1
1
1
1
1
1
1
1
1
1
1
1
1
1
1
1
1
1
1
1
1
1
1
1
1
1
1
1
1
1
1
1
1
1
1
1
1
1
1
1
1
1
1
1
1
1
1
1
1
1
1
1
1
1
1
1
1
1
1
1
1
1
1
1
1
1
1
1
1
1
1
1
1
1
1
1
1
1
1
1
1
1
1
1
1
1
1
1
1
1
1
1
1
1
1
1
1
1
1
1
1
1
1
1
1
1
1
1
1
1
1
1
1
1
1
1
1
1
1
1
1
1
1
1
1
1
1
1
1
1
1
1
1
1
1
1
1
1
1
1
1
1
1
1
1
1
1
1
1
1
1
1
1
1
1
1
1
1
1
1
1
1
1
1
1
1
1
1
1
1
1
1
1
1
1
1
1
1
1
1
1
1
1
1
1
1
1
1
1
1
1
1
1
1
1
1
1
1
1
1
1
1
1
1
1
1
1
1
1
1
1
1
1
1
1
1
1
1
1
1
1
1
1
1
1
1
1
1
1
1
1
1
1
1
1
1
1
1
1
1
1
1
1
1
1
1
1
1
1
1
1
1
1
1
1
1
1
1
1
1
1
1
1
1
1
1
1
1
1
1
1
1
1
1
1
1
1
1
1
1
1
1
1
1
1
1
1
1
1
1
1
1
1
1
1
1
1
1
1
1
1
1
1
1
1
1
1
1
1
1
1
1
1
1
1
1
1
1
1
1
1
1
1
1
1
1
1
1
1
1
1
1
1
1
1
1
1
1
1
1
1
1
1
1
1
1
1
1
1
1
1
1
1
1
1
1
1
1
1
1
1
1
1
1
1
1
1
1
1
1
1
1
1
1
1
1
1
1
1
1
1
1
1
1
1
1
1
1
1
1
1
1
1
1
1
1
1
1
1
1
1
1
1
1
1
1
1
1
1
1
1
1
1
1
1
1
1
1
1
1
1
1
1
1
1
1
1
1
1
1
1
1
1
1
1
1
1
1
1
1
1
1
1
1
1
1
1
1
1
1
1
1
1
1
1
1
1
1
1
1
1
1
1
1
1
1
1
1
1
1
1
1
1
1
1
1
1
1
1
1
1
1
1
1
1
1
1
1
1
1
1
1
1
1
1
1
1
1
1
1
1
1
1
1
1
1
1
1
1
1
1
1
1
1
1
1
1
1
1
1
1
1
1
1
1
1
1
1
1
1
1
1
1
1
1
1
1
1
1
1
1
1
1
1
1
1
1
1
1
1
1
1
1
1
1
1
1
1
1
1
1
1
1
1
1
1
1
1
1
1
1
1
1
1
1
1
1
1
1
1
1
1
1
1
1
1
1
1
1
1
1
1
1
1
1
1
1
1
1
1
1
1
1
1
1
1
1
1
1
1
1
1
1
1
1
1
1
1
1
1
1
1
1
1
1
1
1
1
1
1
1
1
1
1
1
1
1
1
1
1
1
1
1
1
1
1
1
1
1
1
1
1
1
1
1
1
1
1
1
1
1
1
1
1
1
1
1
1
1
1
1
1
1
1
1
1
1
1
1
1
1
1
1
1
1
1
1
1
1
1
1
1
1
1
1
1
1
1
1
1
1
1
1
1
1
1
1
1
1
1
1
1
1
1
1
1
1
1
1
1
1
1
1
1
1
1
1
1
1
1
1
1
1
1
1
1
1
1
1
1
1
1
1
1
1
1
1
1
1
1
1
1
1
1
1
1
1
1
1
1
1
1
1
1
1
1
1
1
1
1
1
1
1
1
1
1
1
1
1
1
1
1
1
1
1
1
1
1
1
1
1
1
1
1
1
1
1
1
1
1
1
1
1
1
1
1
1
1
1
1
1
1
1
1
1
1
1
1
1
1
1
1
1
1
1
1
1
1
1
1
1
1
1
1
1
1
1
1
1
1
1
1
1
1
0.999999999999
0.999999999999
0.999999999998
0.999999999998
0.999999999998
0.999999999999
0.999999999999
1
1
0.999999999999
1
1
1
1
1
1
1
1
1
1
1
1
1
1
1
1
1
1
1
1
1
1
1
1
1
1
1
1
1
1
1
1
1
1
1
1
1
1
1
1
1
1
1
1
1
1
1
1
1
1
1
1
1
1
1
1
1
1
1
1
1
1
1
1
1
1
1
1
1
1
1
1
1
1
1
1
1
1
1
1
1
1
1
1
1
1
1
1
1
1
1
1
1
1
1
1
1
1
1
1
1
1
1
1
1
1
1
1
1
1
1
1
1
1
1
1
1
1
1
1
1
1
1
1
1
1
1
1
1
1
1
1
1
1
1
1
1
1
1
1
1
1
1
1
1
1
1
1
1
1
1
1
1
1
1
1
1
1
1
1
1
1
1
1
1
1
1
1
1
1
1
1
1
1
1
1
1
1
1
1
0.999999999998
0.999999999997
0.999999999996
0.999999999995
0.999999999994
0.999999999992
0.99999999999
0.99999999999
0.99999999999
0.999999999988
1
1
1
1
1
1
1
1
1
1
1
1
1
1
1
1
1
1
1
1
1
1
1
1
1
1
1
1
1
1
1
1
1
1
1
1
1
1
1
1
1
1
1
1
1
1
1
1
1
1
1
1
1
1
1
1
1
1
1
1
1
1
1
1
1
1
1
1
1
1
1
1
1
1
1
1
1
1
1
1
1
1
1
1
1
1
1
1
1
1
1
1
1
1
1
1
1
1
1
1
1
1
1
1
1
1
1
1
1
1
1
1
1
1
1
1
1
1
1
1
1
1
1
1
1
1
1
1
1
1
1
1
1
1
1
1
1
1
1
1
1
1
1
1
1
1
1
1
1
1
1
1
1
1
1
1
1
1
1
1
1
1
1
1
1
1
1
0.999999999998
0.999999999997
0.999999999996
0.999999999995
0.999999999995
0.999999999995
0.999999999995
0.999999999996
0.999999999997
0.999999999998
0.999999999999
1
1
1
1.00000000001
1.00000000001
1
1
0.999999999997
0.999999999985
0.999999999978
0.999999999976
0.999999999981
1
1
1
1
1
1
1
1
1
1
1
1
1
1
1
1
1
1
1
1
1
1
1
1
1
1
1
1
1
1
1
1
1
1
1
1
1
1
1
1
1
1
1
1
1
1
1
1
1
1
1
1
1
1
1
1
1
1
1
1
1
1
1
1
1
1
1
1
1
1
1
1
1
1
1
1
1
1
1
1
1
1
1
1
1
1
1
1
1
1
1
1
1
1
1
1
1
1
1
1
1
1
1
1
1
1
1
1
1
1
1
1
1
1
1
1
1
1
1
1
1
1
1
1
1
1
1
1
1
1
1
1
1
1
1
1
1
1
1
1
1
1
1
1
1
1
1
1
1
1
1
1
0.999999999999
0.999999999999
0.999999999998
0.999999999998
0.999999999998
0.999999999998
0.999999999999
1
1
1
1
1
0.999999999998
0.999999999998
0.999999999996
0.999999999993
0.999999999991
0.99999999999
0.999999999989
0.999999999989
0.999999999988
0.999999999988
0.999999999988
0.999999999989
0.99999999999
0.999999999995
1
1.00000000001
1.00000000003
1.00000000005
1.00000000006
1.00000000007
1.00000000008
1.00000000008
1.00000000007
1.00000000006
1.00000000006
1.00000000009
1
1
1
1
1
1
1
1
1
1
1
1
1
1
1
1
1
1
1
1
1
1
1
1
1
1
1
1
1
1
1
1
1
1
1
1
1
1
1
1
1
1
1
1
1
1
1
1
1
1
1
1
1
1
1
1
1
1
1
1
1
1
1
1
1
1
1
1
1
1
1
1
1
1
1
1
1
1
1
1
1
1
1
1
1
1
1
1
1
1
1
1
1
1
1
1
1
1
1
1
1
1
1
1
1
1
1
1
1
1
1
1
1
1
1
1
1
1
1
1
1
1
1
1
1
1
1
1
1
1
1
1
1
1
1
1
1
1
1
1
1
1
1
1
1
1
1
1
1
0.999999999999
0.999999999999
0.999999999998
0.999999999997
0.999999999997
0.999999999997
0.999999999997
0.999999999997
0.999999999997
0.999999999997
0.999999999998
0.999999999997
0.999999999997
0.999999999996
0.999999999993
0.999999999991
0.999999999991
0.999999999992
0.999999999998
1.00000000001
1.00000000001
1.00000000002
1.00000000002
1.00000000002
1.00000000001
1
0.999999999999
0.999999999996
0.999999999996
1
1.00000000001
1.00000000002
1.00000000005
1.00000000008
1.00000000012
1.00000000018
1.00000000025
1.00000000034
1.00000000038
1.0000000004
1.00000000044
1
1
1
1
1
1
1
1
1
1
1
1
1
1
1
1
1
1
1
1
1
1
1
1
1
1
1
1
1
1
1
1
1
1
1
1
1
1
1
1
1
1
1
1
1
1
1
1
1
1
1
1
1
1
1
1
1
1
1
1
1
1
1
1
1
1
1
1
1
1
1
1
1
1
1
1
1
1
1
1
1
1
1
1
1
1
1
1
1
1
1
1
1
1
1
1
1
1
1
1
1
1
1
1
1
1
1
1
1
1
1
1
1
1
1
1
1
1
1
1
1
1
1
1
1
1
1
1
1
1
1
1
1
1
1
1
1
1
1
1
1
1
1
1
1
1
0.999999999999
0.999999999999
0.999999999998
0.999999999997
0.999999999997
0.999999999998
1
1
1.00000000001
1.00000000001
1.00000000001
1.00000000001
1
1
0.999999999997
0.999999999992
0.999999999987
0.999999999986
0.999999999991
1
1.00000000003
1.00000000007
1.00000000012
1.00000000015
1.00000000017
1.00000000019
1.00000000019
1.00000000018
1.00000000015
1.00000000012
1.0000000001
1.00000000004
1
0.999999999965
0.999999999793
0.99999999963
0.999999999599
0.99999999961
0.999999999704
1.00000000001
1.00000000016
1.00000000035
1.00000000049
1.00000000041
1
1
1
1
1
1
1
1
1
1
1
1
1
1
1
1
1
1
1
1
1
1
1
1
1
1
1
1
1
1
1
1
1
1
1
1
1
1
1
1
1
1
1
1
1
1
1
1
1
1
1
1
1
1
1
1
1
1
1
1
1
1
1
1
1
1
1
1
1
1
1
1
1
1
1
1
1
1
1
1
1
1
1
1
1
1
1
1
1
1
1
1
1
1
1
1
1
1
1
1
1
1
1
1
1
1
1
1
1
1
1
1
1
1
1
1
1
1
1
1
1
1
1
1
1
1
1
1
1
1
1
1
0.999999999999
0.999999999999
0.999999999998
0.999999999998
0.999999999998
0.999999999999
1
1
1
1
1
0.999999999999
0.999999999999
0.999999999998
0.999999999998
0.999999999997
0.999999999997
1
1.00000000001
1.00000000002
1.00000000003
1.00000000005
1.00000000007
1.00000000007
1.00000000007
1.00000000007
1.00000000005
1.00000000003
1.00000000002
1.00000000002
1.00000000002
1.00000000003
1.00000000008
1.00000000012
1.00000000016
1.00000000023
1.0000000003
1.00000000033
1.00000000034
1.00000000036
1.00000000037
1.00000000038
1.00000000039
1.00000000038
1.00000000035
1.00000000018
1.00000000002
0.999999999899
0.999999999298
0.999999998508
0.999999998181
0.999999997718
0.999999997508
0.999999997237
0.999999997176
0.999999997398
0.999999997545
0.99999999703
1
1
1
1
1
1
1
1
1
1
1
1
1
1
1
1
1
1
1
1
1
1
1
1
1
1
1
1
1
1
1
1
1
1
1
1
1
1
1
1
1
1
1
1
1
1
1
1
1
1
1
1
1
1
1
1
1
1
1
1
1
1
1
1
1
1
1
1
1
1
1
1
1
1
1
1
1
1
1
1
1
1
1
1
1
1
1
1
1
1
1
1
1
1
1
1
1
1
1
1
1
1
1
1
1
1
1
1
1
1
1
1
1
1
1
1
1
1
1
1
1
1
1
1
1
1
1
1
1
0.999999999999
0.999999999999
0.999999999998
0.999999999997
0.999999999994
0.999999999992
0.999999999992
0.999999999992
0.999999999992
0.999999999994
0.999999999997
0.999999999999
0.999999999999
0.999999999999
0.999999999999
0.999999999998
0.999999999998
1
1
1.00000000002
1.00000000004
1.00000000006
1.00000000009
1.00000000011
1.00000000011
1.00000000009
1.00000000008
1.00000000007
1.00000000008
1.00000000011
1.00000000012
1.00000000013
1.00000000015
1.00000000019
1.00000000028
1.00000000036
1.00000000037
1.00000000034
1.0000000002
0.999999999969
0.999999999754
0.999999999579
0.999999999487
0.999999999487
0.999999999566
0.999999999764
0.999999999947
1.00000000005
1.00000000016
1.00000000023
1.00000000022
1.00000000002
0.999999999439
0.999999998742
0.999999997351
0.99999999628
0.999999993762
0.999999990839
0.999999989176
0.999999988633
0.999999987652
1
1
1
1
1
1
1
1
1
1
1
1
1
1
1
1
1
1
1
1
1
1
1
1
1
1
1
1
1
1
1
1
1
1
1
1
1
1
1
1
1
1
1
1
1
1
1
1
1
1
1
1
1
1
1
1
1
1
1
1
1
1
1
1
1
1
1
1
1
1
1
1
1
1
1
1
1
1
1
1
1
1
1
1
1
1
1
1
1
1
1
1
1
1
1
1
1
1
1
1
1
1
1
1
1
1
1
1
1
1
1
1
1
1
1
1
1
1
1
1
1
1
1
1
1
1
1
1
0.999999999999
0.999999999998
0.999999999997
0.999999999997
0.999999999998
0.999999999999
1
0.999999999999
0.999999999997
0.999999999994
0.999999999991
0.999999999992
0.999999999995
0.999999999997
1
1.00000000001
1.00000000001
1.00000000002
1.00000000003
1.00000000005
1.00000000009
1.00000000012
1.00000000013
1.00000000009
1
0.999999999903
0.999999999649
0.999999999548
0.999999999543
0.999999999601
0.999999999831
0.999999999991
1.00000000006
1.0000000002
1.00000000034
1.00000000035
1.00000000016
0.999999999914
0.999999999463
0.999999998648
0.999999997059
0.999999996283
0.99999999568
0.999999995304
0.99999999519
0.999999995272
0.999999995667
0.999999996399
0.999999996951
0.999999998825
1.00000000091
1.00000000254
1.00000000785
1.00000001039
1.00000001159
1.00000001175
1.00000001037
1.00000000499
1.00000000005
0.99999999395
0.9999999913
0.999999992691
1
1
1
1
1
1
1
1
1
1
1
1
1
1
1
1
1
1
1
1
1
1
1
1
1
1
1
1
1
1
1
1
1
1
1
1
1
1
1
1
1
1
1
1
1
1
1
1
1
1
1
1
1
1
1
1
1
1
1
1
1
1
1
1
1
1
1
1
1
1
1
1
1
1
1
1
1
1
1
1
1
1
1
1
1
1
1
1
1
1
1
1
1
1
1
1
1
1
1
1
1
1
1
1
1
1
1
1
1
1
1
1
1
1
1
1
1
1
1
1
1
1
1
1
1
1
1
1
1
1.00000000001
1.00000000001
1.00000000002
1.00000000004
1.00000000007
1.00000000009
1.00000000009
1.00000000008
1.00000000007
1.00000000004
1.00000000002
1.00000000001
1.00000000001
1.00000000001
1.00000000003
1.00000000005
1.00000000008
1.0000000001
1.00000000012
1.00000000009
0.999999999996
0.999999999792
0.999999999345
0.999999998968
0.999999998634
0.999999998382
0.999999998316
0.999999998294
0.999999998297
0.999999998383
0.999999998596
0.999999998742
0.99999999888
0.999999998846
0.999999998428
0.999999997041
0.999999995911
0.999999994827
0.999999993448
0.999999992093
0.999999991705
0.999999991469
0.999999991247
0.999999991055
0.999999990838
0.999999990694
0.999999990976
0.999999991905
0.999999995739
1.00000000123
1.00000000719
1.00000001976
1.00000003323
1.00000004121
1.00000004945
1.00000005615
1.00000006383
1.00000006657
1.00000006468
1.00000006407
1.0000000703
1
1
1
1
1
1
1
1
1
1
1
1
1
1
1
1
1
1
1
1
1
1
1
1
1
1
1
1
1
1
1
1
1
1
1
1
1
1
1
1
1
1
1
1
1
1
1
1
1
1
1
1
1
1
1
1
1
1
1
1
1
1
1
1
1
1
1
1
1
1
1
1
1
1
1
1
1
1
1
1
1
1
1
1
1
1
1
1
1
1
1
1
1
1
1
1
1
1
1
1
1
1
1
1
1
1
0.999999999999
0.999999999998
0.999999999997
0.999999999996
0.999999999996
0.999999999996
0.999999999997
1
1
1
1
1
1
1
1
1
1
1
1
1
1.00000000001
1.00000000001
1.00000000002
1.00000000004
1.00000000008
1.00000000012
1.00000000017
1.00000000023
1.00000000029
1.0000000003
1.0000000003
1.00000000029
1.00000000025
1.00000000016
1.00000000008
1.00000000005
1.00000000004
1.00000000004
1.00000000004
1.00000000001
0.999999999963
0.999999999745
0.999999999332
0.9999999987
0.99999999792
0.999999997177
0.99999999708
0.999999997318
0.999999998463
0.999999999222
0.9999999993
0.999999998954
0.999999997591
0.999999996536
0.999999996173
0.99999999555
0.999999994071
0.999999991304
0.999999989453
0.999999989021
0.999999989641
0.999999991821
0.999999997098
1.0000000003
1.00000000306
1.00000000482
1.00000000548
1.00000000528
1.00000000361
1.00000000072
0.999999998333
0.999999997576
0.999999997012
0.999999995411
1.00000000131
1.00000001553
1.00000002979
1.00000004576
1.00000008369
1.00000012593
1.00000017694
1.00000019892
1.00000020638
1.00000022037
1
1
1
1
1
1
1
1
1
1
1
1
1
1
1
1
1
1
1
1
1
1
1
1
1
1
1
1
1
1
1
1
1
1
1
1
1
1
1
1
1
1
1
1
1
1
1
1
1
1
1
1
1
1
1
1
1
1
1
1
1
1
1
1
1
1
1
1
1
1
1
1
1
1
1
1
1
1
1
1
1
1
1
1
1
1
1
1
1
1
1
1
1
1
1
1
1
1
1
1
1
1
1
1
1
1
1
1
0.999999999999
0.999999999994
0.99999999999
0.999999999987
0.999999999982
0.999999999981
0.999999999984
0.999999999994
1
1
1
1.00000000001
1.00000000001
1
1
1
1
1.00000000001
1.00000000001
1.00000000003
1.00000000005
1.0000000001
1.00000000015
1.00000000017
1.00000000016
1.00000000012
1.00000000005
1.00000000003
1.00000000006
1.00000000015
1.0000000002
1.0000000002
1.00000000015
1.00000000007
0.999999999966
0.999999999745
0.999999999541
0.999999999186
0.999999998699
0.999999997825
0.999999996674
0.999999995914
0.999999995789
0.999999997207
0.999999999601
1.00000000243
1.00000000748
1.00000001015
1.00000001084
1.0000000106
1.00000000781
1.00000000397
1.00000000198
0.999999999355
0.999999994787
0.999999993531
0.9999999947
1.00000000288
1.0000000122
1.00000002656
1.00000004314
1.00000005654
1.00000006785
1.00000007537
1.00000007881
1.00000007942
1.00000007651
1.0000000622
1.00000003683
1.00000001211
0.999999990708
0.999999933227
0.999999841546
0.999999814332
0.999999812653
0.999999819831
0.999999862597
0.999999976823
1.00000003959
1.00000009731
1.00000014771
1.00000015058
1
1
1
1
1
1
1
1
1
1
1
1
1
1
1
1
1
1
1
1
1
1
1
1
1
1
1
1
1
1
1
1
1
1
1
1
1
1
1
1
1
1
1
1
1
1
1
1
1
1
1
1
1
1
1
1
1
1
1
1
1
1
1
1
1
1
1
1
1
1
1
1
1
1
1
1
1
1
1
1
1
1
1
1
1
1
1
1
1
1
1
1
1
1
1
1
1
1
1
1
1
1
1
1
1
1.00000000001
1.00000000002
1.00000000003
1.00000000003
1.00000000003
1.00000000003
1.00000000001
0.999999999997
0.999999999968
0.99999999995
0.999999999946
0.99999999995
0.999999999956
0.999999999966
0.999999999974
0.99999999998
0.999999999984
0.999999999987
0.999999999987
0.999999999982
0.999999999971
0.999999999952
0.999999999915
0.999999999875
0.999999999782
0.999999999482
0.999999999235
0.999999998668
0.99999999799
0.999999997446
0.999999997175
0.999999997299
0.999999997921
0.999999998318
0.999999998984
0.999999999538
0.999999999633
0.999999999458
0.999999998724
0.999999998044
0.999999997132
0.999999996309
0.999999995907
0.999999996603
1.00000000025
1.00000000476
1.00000001342
1.00000001968
1.00000002412
1.00000002795
1.00000002929
1.00000003056
1.00000003576
1.00000003992
1.00000004176
1.00000004085
1.0000000397
1.00000004061
1.0000000497
1.00000005907
1.00000008773
1.00000010564
1.00000012375
1.00000014699
1.00000015632
1.00000016256
1.00000016661
1.0000001687
1.00000017022
1.00000016853
1.00000015736
1.00000010955
1.00000003826
0.999999971905
0.999999846356
0.99999951797
0.99999932578
0.999999231729
0.999999169488
0.999999088974
0.999999020194
0.99999903465
0.999999123625
0.999999187019
0.999999153783
1
1
1
1
1
1
1
1
1
1
1
1
1
1
1
1
1
1
1
1
1
1
1
1
1
1
1
1
1
1
1
1
1
1
1
1
1
1
1
1
1
1
1
1
1
1
1
1
1
1
1
1
1
1
1
1
1
1
1
1
1
1
1
1
1
1
1
1
1
1
1
1
1
1
1
1
1
1
1
1
1
1
1
1
1
1
1
1
1
1
1
1
1
1
1
1
1
1
1
1
1
1
1
1
1.00000000001
1.00000000001
1.00000000003
1.00000000007
1.00000000013
1.00000000018
1.00000000021
1.00000000023
1.00000000021
1.00000000014
1.00000000004
0.999999999994
0.999999999923
0.999999999894
0.999999999887
0.99999999989
0.999999999903
0.999999999916
0.999999999923
0.99999999992
0.999999999894
0.999999999839
0.99999999966
0.999999999395
0.999999999013
0.999999998195
0.999999996545
0.999999995648
0.999999994273
0.999999992838
0.999999991994
0.999999991585
0.999999991789
0.999999993219
0.999999994295
0.999999995708
0.999999997727
0.999999998364
0.999999998916
0.999999999102
0.999999999056
0.99999999959
1.00000000218
1.00000000756
1.00000001956
1.00000003244
1.0000000474
1.00000005522
1.00000005252
1.00000004249
1.00000002081
1.00000000442
0.999999998909
1.00000001365
1.00000003761
1.00000007302
1.00000008927
1.00000010674
1.00000013144
1.00000016154
1.00000019265
1.00000020144
1.00000019662
1.00000018796
1.00000014559
1.00000011247
1.00000007895
1.00000005675
1.00000004301
1.00000003628
1.00000004548
1.00000008199
1.00000010972
1.00000010054
1.00000008904
1.00000000751
0.999999685766
0.999999260908
0.999998985089
0.999998708599
0.99999834253
0.999997590609
0.999997106445
0.999996920057
0.999996884257
0.999996775535
1
1
1
1
1
1
1
1
1
1
1
1
1
1
1
1
1
1
1
1
1
1
1
1
1
1
1
1
1
1
1
1
1
1
1
1
1
1
1
1
1
1
1
1
1
1
1
1
1
1
1
1
1
1
1
1
1
1
1
1
1
1
1
1
1
1
1
1
1
1
1
1
1
1
1
1
1
1
1
1
1
1
1
1
1
1
1
1
1
1
1
1
1
1
1
1
1
0.999999999999
0.999999999999
0.999999999999
0.999999999997
0.99999999999
0.999999999974
0.999999999963
0.999999999948
0.999999999907
0.999999999892
0.999999999896
0.999999999967
1.00000000007
1.00000000018
1.00000000043
1.0000000006
1.00000000063
1.00000000059
1.00000000051
1.00000000033
1.00000000024
1.00000000016
1.0000000001
1.00000000005
1.00000000003
1.00000000001
0.999999999976
0.999999999946
0.999999999848
0.999999999446
0.999999999216
0.999999998462
0.99999999721
0.999999995111
0.999999994443
0.999999994518
0.999999995229
0.999999996439
0.999999997418
0.999999998222
0.999999998156
0.999999998025
0.999999998268
0.999999999793
1.00000000091
1.00000000276
1.0000000104
1.00000001728
1.00000002502
1.00000003636
1.00000005211
1.00000007223
1.00000008462
1.0000000858
1.00000006232
1.00000002288
0.999999981498
0.999999891088
0.999999816705
0.999999791049
0.999999780336
0.999999823094
0.999999898589
0.999999943445
1.00000001511
1.00000005466
1.00000008039
1.00000005446
0.999999988904
0.999999896036
0.999999795811
0.999999575185
0.999999455568
0.999999340734
0.999999279705
0.999999240718
0.999999222806
0.99999925163
0.999999392426
0.999999856738
1.00000020763
1.00000099911
1.00000167092
1.00000170332
1.00000159074
1.0000013726
1.00000070255
1.00000001931
0.999998816427
0.999997361511
0.99999654252
0.999996202063
0.999996018603
1
1
1
1
1
1
1
1
1
1
1
1
1
1
1
1
1
1
1
1
1
1
1
1
1
1
1
1
1
1
1
1
1
1
1
1
1
1
1
1
1
1
1
1
1
1
1
1
1
1
1
1
1
1
1
1
1
1
1
1
1
1
1
1
1
1
1
1
1
1
1
1
1
1
1
0.999999999999
0.999999999999
0.999999999999
0.999999999999
1
1
1
1.00000000001
1.00000000001
1.00000000001
1.00000000001
1.00000000001
1.00000000001
1.00000000001
1.00000000001
1.00000000001
1.00000000001
1.00000000001
1
1
1
1
1
1
0.999999999999
0.999999999989
0.999999999965
0.99999999989
0.999999999836
0.999999999773
0.999999999565
0.999999999057
0.999999998588
0.999999998334
0.999999998195
0.999999998122
0.99999999841
0.999999999267
1.00000000017
1.00000000065
1.00000000107
1.00000000118
1.00000000121
1.00000000115
1.00000000107
1.00000000094
1.00000000083
1.00000000083
1.00000000089
1.00000000134
1.00000000177
1.00000000329
1.00000000601
1.0000000076
1.00000001209
1.00000001775
1.00000002158
1.00000002998
1.00000003937
1.00000004688
1.0000000512
1.00000005184
1.00000004293
1.00000003185
1.00000002396
1.00000001899
1.00000001701
1.00000001818
1.0000000304
1.00000005877
1.00000007473
1.00000009104
1.00000010163
1.00000009934
1.0000000501
0.99999998571
0.999999879551
0.999999807381
0.999999779366
0.999999697265
0.999999600597
0.999999528428
0.99999929857
0.999999126795
0.999999111914
0.999999149599
0.999999240852
0.999999268688
0.99999923172
0.999999057612
0.999998675701
0.999998506953
0.999998310704
0.999997995261
0.999997863499
0.99999776144
0.99999767326
0.999997608435
0.999997569722
0.999997607673
0.999997870244
0.999999013543
1.00000045493
1.00000253768
1.00000526265
1.0000066083
1.00000762809
1.00000855328
1.00000891508
1.00000888283
1.00000841223
1.00000718557
1.00000609534
1.00000540495
1.00000522666
1
1
1
1
1
1
1
1
1
1
1
1
1
1
1
1
1
1
1
1
1
1
1
1
1
1
1
1
1
1
1
1
1
1
1
1
1
1
1
1
1
1
1
1
1
1
1
1
1
1
1
1
1
1
1
1
1
1
1
1
1
1
1
1
1
1
1
1
1
1
1
1
0.999999999999
0.999999999997
0.999999999995
0.999999999995
0.999999999992
0.999999999987
0.999999999975
0.999999999958
0.999999999946
0.99999999994
0.999999999941
0.999999999946
0.999999999954
0.999999999962
0.999999999969
0.999999999977
0.999999999985
0.999999999991
0.999999999997
1
1
1.00000000001
1.00000000001
1.00000000001
1.00000000001
1.00000000001
1.00000000001
1.00000000001
1.00000000003
1.00000000011
1.00000000018
1.00000000022
1.00000000018
0.999999999957
0.999999998755
0.999999997171
0.99999999608
0.999999994552
0.999999992656
0.999999991864
0.999999992221
0.999999994279
0.999999997152
0.999999998199
0.999999999299
1.00000000012
1.00000000046
1.00000000071
1.00000000089
1.00000000109
1.00000000184
1.00000000245
1.00000000435
1.00000000791
1.00000001781
1.00000002507
1.0000000398
1.00000005513
1.00000008555
1.00000010239
1.0000001197
1.00000013869
1.00000014824
1.00000015244
1.00000014848
1.00000012271
1.00000007186
1.00000005233
1.00000003191
1.00000002376
1.00000002061
1.00000002001
1.00000001522
1.00000000602
0.999999993657
0.999999942108
0.999999826646
0.999999650262
0.999999424804
0.999999330859
0.999999442699
0.999999731647
1.00000007693
1.00000020177
1.00000005845
0.999999615035
0.99999862663
0.999998193572
0.999998071142
0.999997873558
0.99999761745
0.999997260924
0.999996875868
0.99999660341
0.999996543496
0.999996546985
0.999996636054
0.999996700918
0.999996789752
0.999996854984
0.999996866127
0.999996811043
0.999996773711
0.999996916242
0.999997558399
0.999999612751
1.00000197346
1.00000589208
1.00001022686
1.00001303653
1.0000166375
1.00002148547
1.0000253634
1.000028297
1.00002914056
1.00002895579
1.00002818367
1.00002801566
1
1
1
1
1
1
1
1
1
1
1
1
1
1
1
1
1
1
1
1
1
1
1
1
1
1
1
1
1
1
1
1
1
1
1
1
1
1
1
1
1
1
1
1
1
1
1
1
1
1
1
1
1
1
1
1
1
1
1
1
1
1
1
1
1
1
1
1
1
1
1
0.999999999999
1
1
1
1
1
0.999999999998
0.999999999981
0.999999999929
0.99999999986
0.999999999798
0.999999999758
0.999999999748
0.999999999752
0.999999999768
0.999999999787
0.999999999812
0.999999999842
0.999999999871
0.999999999897
0.999999999919
0.99999999994
0.999999999956
0.999999999969
0.999999999979
0.999999999986
0.999999999992
1.00000000001
1.00000000004
1.0000000002
1.00000000074
1.00000000208
1.00000000325
1.00000000433
1.00000000548
1.00000000647
1.000000007
1.00000000616
1.00000000245
0.999999999242
0.9999999928
0.999999988348
0.99999998771
0.999999988337
0.99999998901
0.999999990097
0.999999991747
0.999999992518
0.999999993229
0.999999994089
0.99999999512
0.999999996208
0.999999997679
0.999999998842
1.00000000409
1.00000001143
1.00000001825
1.00000004574
1.00000007295
1.00000011196
1.00000012895
1.0000001341
1.00000013032
1.00000011622
1.00000010456
1.00000007716
1.00000003776
0.999999991208
0.999999952524
0.999999910872
0.999999894837
0.999999876985
0.999999820117
0.999999609979
0.999999422267
0.99999929789
0.999999097688
0.999998797978
0.999998524754
0.999998475295
0.999998831426
0.999999715357
1.00000076671
1.00000234652
1.00000316364
1.00000350486
1.00000315224
1.00000160255
1.00000067724
0.999999900459
0.999998926102
0.999997842502
0.999997368701
0.999997319047
0.999997736856
0.999998554537
0.999999110051
1.00000002245
1.0000004996
1.00000091536
1.00000124024
1.00000147257
1.00000140815
1.00000055912
0.999998680163
0.999996499357
0.999993418099
0.999992461061
0.999994249839
1.00000090434
1.00000392262
1.00000986805
1.0000224185
1.00003242246
1.00004024455
1.00004554893
1.00004842294
1.00004920882
1.00005080639
1
1
1
1
1
1
1
1
1
1
1
1
1
1
1
1
1
1
1
1
1
1
1
1
1
1
1
1
1
1
1
1
1
1
1
1
1
1
1
1
1
1
1
1
1
1
1
1
1
1
1
1
1
1
1
1
1
1
1
1
1
1
1
1
1
1
1
1
1
1
1
1
1.00000000002
1.00000000004
1.00000000007
1.00000000008
1.00000000015
1.00000000023
1.00000000036
1.00000000043
1.00000000045
1.00000000042
1.00000000034
1.00000000025
1.00000000014
1.00000000007
1
0.999999999951
0.999999999909
0.999999999881
0.999999999864
0.999999999856
0.999999999857
0.999999999865
0.99999999988
0.999999999896
0.999999999917
0.999999999932
0.999999999966
1.00000000013
1.00000000026
1.00000000084
1.00000000268
1.00000000614
1.00000000953
1.00000001375
1.0000000278
1.0000000466
1.00000006102
1.00000006489
1.0000000629
1.00000005273
1.00000002802
1.00000000913
1.00000000149
0.999999994627
0.999999988271
0.999999985701
0.999999984556
0.999999984187
0.999999983347
0.999999978178
0.999999971046
0.999999961709
0.999999938034
0.999999883462
0.999999829947
0.999999797438
0.99999977331
0.999999757483
0.999999715568
0.999999673949
0.999999613658
0.999999531975
0.999999452697
0.99999938951
0.999999367916
0.999999447481
0.999999612642
0.999999634373
0.999999587773
0.99999954567
0.999999480271
0.999999283242
0.999998637742
0.999998113551
0.999997867687
0.999997636842
0.999997574703
0.99999781123
0.999998604798
1.00000036404
1.00000141332
1.00000300581
1.0000058163
1.00000781795
1.00000972837
1.00001175812
1.00001189755
1.00001092918
1.00001013107
1.00000864721
1.00000746011
1.00000757904
1.00000817791
1.00001021102
1.00001227634
1.00001328059
1.00001416413
1.00001471662
1.00001541027
1.00001614504
1.00001699755
1.00001741804
1.00001567697
1.000005749
0.999997222909
0.999978403076
0.999964517693
0.999957322405
0.99995311087
0.999953204103
0.99995647093
0.999968307846
0.999986097846
0.999998073403
1.00000642642
1.00001541595
1.00001979964
1.00002746292
1
1
1
1
1
1
1
1
1
1
1
1
1
1
1
1
1
1
1
1
1
1
1
1
1
1
1
1
1
1
1
1
1
1
1
1
1
1
1
1
1
1
1
1
1
1
1
1
1
1
1
1
1
1
1
1
1
1
1
1
1
1
1
1
1
1
1
1
1
1.00000000001
1.00000000001
1.00000000002
1.00000000004
1.00000000005
1.00000000008
1.00000000011
1.00000000027
1.00000000049
1.00000000094
1.00000000183
1.00000000245
1.00000000289
1.00000000309
1.00000000308
1.00000000284
1.00000000255
1.00000000223
1.00000000186
1.0000000015
1.00000000116
1.00000000084
1.00000000061
1.00000000042
1.00000000025
1.00000000015
1.00000000009
1.00000000005
1.00000000001
0.999999999938
0.999999999612
0.999999998004
0.999999991197
0.999999983184
0.999999982078
0.999999983507
0.999999990565
1.00000002044
1.00000005819
1.00000010409
1.00000015241
1.0000001807
1.0000001793
1.00000015006
1.00000010201
1.00000008025
1.00000005782
1.00000003705
1.00000002799
1.00000002172
1.00000001823
1.00000001153
0.999999989388
0.999999952422
0.9999999105
0.999999813615
0.999999611048
0.999999264943
0.999999117826
0.999998946283
0.999998724579
0.999998385386
0.999998172657
0.99999804388
0.999997911983
0.99999783139
0.999997824208
0.999997935205
0.999998554181
0.999999515868
0.999999797117
0.999999893122
0.999999849258
0.999999759199
0.999999435538
0.999998572933
0.999998194108
0.99999819046
0.999998424629
0.999999805805
1.00000200054
1.00000379201
1.00000495206
1.00000420786
1.00000357938
1.0000036041
1.00000587591
1.00000859138
1.00001743364
1.00002363712
1.00002621009
1.00002675071
1.00002661605
1.00002702038
1.00002812766
1.00003059395
1.00003340451
1.00003458077
1.00003506556
1.00003523308
1.00003529081
1.00003568109
1.00003668878
1.00003818838
1.00003961646
1.000038527
1.00002463308
1.00000217165
0.999964375829
0.999929262285
0.999893350466
0.99984654549
0.999831218487
0.999819491017
0.999816555525
0.999820651399
0.999832900954
0.999846213876
0.99986210383
0.999874170129
0.999890924255
1
1
1
1
1
1
1
1
1
1
1
1
1
1
1
1
1
1
1
1
1
1
1
1
1
1
1
1
1
1
1
1
1
1
1
1
1
1
1
1
1
1
1
1
1
1
1
1
0.999999999999
0.999999999999
0.999999999999
0.999999999999
0.999999999999
0.999999999999
0.999999999999
0.999999999999
0.999999999999
1
1
1
1
1
1
1
1
1
1
1
1
1
0.999999999998
0.999999999983
0.999999999899
0.999999999486
0.999999999194
0.999999999027
0.999999998703
0.999999998318
0.999999998092
0.999999998345
0.999999999762
1.00000000062
1.00000000212
1.00000000306
1.00000000364
1.00000000385
1.00000000382
1.00000000362
1.00000000327
1.0000000029
1.00000000249
1.00000000215
1.00000000181
1.00000000146
1.00000000112
1.00000000083
1.00000000049
1.00000000019
0.999999999923
0.999999998898
0.999999992733
0.999999964457
0.999999916088
0.999999887682
0.999999872066
0.999999830156
0.999999776989
0.999999767592
0.99999979336
0.99999988696
1.00000000624
1.00000007875
1.00000014554
1.00000015345
1.00000015018
1.00000014171
1.00000012979
1.0000001219
1.00000011686
1.00000011594
1.00000011923
1.00000015779
1.00000017701
1.00000017199
1.00000011074
0.999999883818
0.99999935497
0.99999904351
0.99999862883
0.999998023018
0.999997423389
0.999997050239
0.999996955284
0.999996999571
0.999997199661
0.999997433124
0.999997854409
0.999999206803
1.00000108139
1.00000195297
1.00000299855
1.00000339016
1.00000372246
1.00000395468
1.00000445647
1.00000589598
1.00000689857
1.00000814707
1.00001068156
1.00001406762
1.00001535482
1.0000118745
1.00000160343
0.999991531331
0.999977392149
0.999974705015
0.999977718635
0.999993114212
1.00000967561
1.00002147437
1.00002807589
1.0000318176
1.00003822627
1.00004079185
1.00004153995
1.00004112929
1.00004026195
1.00003952041
1.00003883859
1.00003882668
1.00003946353
1.00004053731
1.0000414967
1.00004295184
1.00004422988
1.00004341422
1.00002907199
0.999981570665
0.999934584672
0.999855206796
0.999738326351
0.999698232278
0.99964050349
0.999586755319
0.999544252414
0.999523294431
0.99952357551
0.99953569824
0.999556751707
0.999581650606
1
1
1
1
1
1
1
1
1
1
1
1
1
1
1
1
1
1
1
1
1
1
1
1
1
1
1
1
1
1
1
1
1
1
1
1
1
1
1
1
1
1
1
1
1
1
1
1
1
1
1
1
1
1
1
1
1
1
1.00000000001
1.00000000001
1.00000000001
1
1
1
1
1
1
0.99999999999
0.999999999961
0.999999999933
0.999999999908
0.999999999845
0.999999999573
0.999999998367
0.999999997728
0.999999997066
0.999999995509
0.999999992556
0.999999986641
0.999999979261
0.999999974422
0.999999973261
0.999999974311
0.999999977282
0.999999981274
0.999999985146
0.999999988297
0.9999999913
0.999999993976
0.999999996175
0.999999997827
0.999999999005
0.99999999972
1.00000000005
1.00000000006
0.999999999805
0.999999999511
0.999999999552
1.00000000034
1.00000000182
1.00000000494
0.999999990592
0.999999931453
0.999999869616
0.999999799374
0.999999648753
0.999999304935
0.999998855069
0.999998606771
0.999998570039
0.999998647376
0.999998966929
0.999999526366
0.999999760559
0.99999987644
0.999999978764
1.00000004107
1.00000006848
1.00000008151
1.00000009003
1.00000014209
1.00000055981
1.00000097548
1.00000138155
1.00000221812
1.00000271837
1.00000291252
1.00000326984
1.00000339063
1.00000330368
1.00000285658
1.00000232559
1.00000218688
1.00000238185
1.00000286906
1.00000329048
1.0000036039
1.00000337979
1.00000411646
1.0000059054
1.00000874195
1.00001063204
1.00001208031
1.00001545283
1.00001999434
1.00002420573