/*--------------------------------*- C++ -*----------------------------------*\
  =========                 |
  \\      /  F ield         | OpenFOAM: The Open Source CFD Toolbox
   \\    /   O peration     | Website:  https://openfoam.org
    \\  /    A nd           | Version:  8
     \\/     M anipulation  |
\*---------------------------------------------------------------------------*/
FoamFile
{
    version     2.0;
    format      ascii;
    class       volScalarField;
    location    "0.000664";
    object      magGradrho;
}
// * * * * * * * * * * * * * * * * * * * * * * * * * * * * * * * * * * * * * //

dimensions      [1 -4 0 0 0 0 0];

internalField   nonuniform List<scalar> 
22800
(
0.514922321983
0.53487085749
0.546996438238
0.56226346984
0.567692753429
0.5642667847
0.568512021088
0.574842839923
0.581073421599
0.594655391198
0.617646433003
0.647392517123
0.670392764143
0.69387851139
0.714699026532
0.72515700845
0.72968819957
0.737764638083
0.749048371605
0.758003656471
0.754723292609
0.745139802721
0.735231750937
0.722318340911
0.707089109055
0.688421892447
0.67048999621
0.655609357593
0.647188087194
0.647788158221
0.653029153348
0.661394478816
0.677274782687
0.69836224121
0.723129642484
0.750166355894
0.779943916653
0.800745329285
0.828470151189
0.864183179106
0.900759964108
0.936810224727
0.967394600652
1.02056229221
1.05299413097
1.09258125231
1.11992715432
1.14175693498
1.15776484715
1.17439554208
1.19633818739
1.22456075727
1.2572885557
1.28258333279
1.30125431313
1.33492643968
1.37811742756
1.40525588596
1.4163342372
1.42871728117
1.4525718988
1.48733494113
1.52529598437
1.5690958077
1.60853415335
1.64645647755
1.69110752366
1.74080985761
1.79094027986
1.83664966544
1.87814660597
1.9078295378
1.94409162855
1.91556513128
1.87732262879
1.85194601327
1.83699972517
1.82579650811
1.81024443785
1.78221225816
1.74435627172
1.70237940366
1.66957648023
1.65075572966
1.64402742345
1.65620299802
1.68824051207
1.71983751986
1.73608044617
1.75703327967
1.75787902085
1.75113995065
1.78946762899
1.82753961818
1.86872979703
1.90209952642
1.89910062367
1.85227821909
1.81022300085
1.80062369466
1.81904444795
1.83941865904
1.83494641415
1.83609318954
1.83207478756
1.82139656382
1.8210379438
1.83901531165
1.87004099358
1.95437643748
1.95766769624
1.95078644235
1.87780797993
1.79682639369
1.73879848224
1.71847289593
1.71290216626
1.69798721201
1.69794496808
1.70136823571
1.69130975708
1.68232249969
1.67567408898
1.69496117522
1.62843379094
1.5517827915
1.49311410838
1.47058618714
1.4806495195
1.49558403071
1.50575383429
1.49510203542
1.46450370814
1.41346954051
1.4006947534
1.30593118468
1.26581618196
1.18780931616
1.12094711674
1.07277907592
1.02633954839
0.967163257656
0.92148237016
0.888988569872
0.860145009656
0.878783905172
0.842661073952
0.774783186313
0.731269458859
0.707237249985
0.674956013308
0.64338359152
0.601625380462
0.562147626141
0.530531548953
0.489411223681
0.429764760958
0.346772566591
0.269237984764
0.198513038043
0.121529909251
0.089987521769
0.123613284315
0.163870016504
0.14226182211
0.067731081102
0.0708243859354
0.180417684577
0.288349112073
0.337628896693
0.331761408436
0.316044396384
0.283525976486
0.265926968225
0.267714259002
0.285912285581
0.314662864001
0.346959465491
0.353774954205
0.329037796254
0.294497633951
0.258503679268
0.224665242529
0.196382367775
0.167402115315
0.143149381193
0.114945930799
0.0849454506047
0.0450145309584
0.0502745150946
0.387352145265
0.384688568564
0.429137218997
0.438528893867
0.401911456981
0.333025872693
0.285888372988
0.26239060896
0.253246375066
0.246050128638
0.244294480028
0.24624979612
0.243905160658
0.242466653802
0.251086629883
0.258288325462
0.256173733359
0.255523519306
0.261504293887
0.272123109096
0.279085536976
0.273777914932
0.267196288793
0.269009847622
0.2787976993
0.290264968345
0.303282997128
0.323918424368
0.354151177719
0.390663907412
0.427236385639
0.465978226278
0.508220074271
0.553018439992
0.598101380711
0.644413070531
0.683664662953
0.716986275747
0.757460982422
0.794247694428
0.825180033708
0.842516151829
0.86886830905
0.895693779343
0.911520470755
0.932289436274
0.949175483012
0.966891203339
0.986689781874
1.01034844926
1.03948002853
1.07348434307
1.10155907432
1.11465454687
1.1211335613
1.13192729421
1.14162052879
1.14546275542
1.15435089526
1.17034439962
1.18798539078
1.2033167283
1.20992406373
1.21862792797
1.2297152883
1.23950263455
1.25327815912
1.27479933653
1.30726200831
1.34437628026
1.38434878108
1.41787959178
1.4307938118
1.39868473039
1.33419720966
1.26380265051
1.20327840096
1.17140644135
1.16863015742
1.18602605768
1.21087100641
1.23314872661
1.246330126
1.25540722305
1.26662414122
1.27813605279
1.2893946459
1.30783140497
1.34285568051
1.38178829667
1.4097503658
1.44084674848
1.47422368692
1.50837018934
1.54014133254
1.56560683582
1.58009480225
1.59097068734
1.59266995919
1.58502991953
1.57635334175
1.5821155378
1.59130691639
1.58119712854
1.56663474475
1.55699058222
1.55882953127
1.57652286627
1.60350455995
1.64426156689
1.6379294205
1.55526744971
1.4679828717
1.41636255536
1.40909623687
1.42920018996
1.44291622589
1.44194748941
1.43997366057
1.43179900008
1.42664766592
1.43876169107
1.46879278829
1.4937592719
1.4745391729
1.45082124968
1.42605674586
1.39995888004
1.37261540782
1.34630259918
1.31719230298
1.28488374253
1.25955170262
1.24290531044
1.25384627095
1.23775838562
1.16799163947
1.08203802366
1.00706497039
0.959925008213
0.930177282679
0.899732077629
0.878430994465
0.866532264369
0.865558656055
0.876535036509
0.830801019817
0.774103971359
0.724377153647
0.683083556836
0.63503756241
0.587730593228
0.54472979838
0.511087610591
0.476834557482
0.458642379061
0.385080650039
0.299654972935
0.229833799208
0.174718124233
0.112749493555
0.0858143595361
0.118172659298
0.153944538332
0.121986040253
0.0526497757404
0.0222516107007
0.0798387617767
0.107522914917
0.116206753498
0.126947387681
0.14478469271
0.157566609837
0.174406278842
0.198708069551
0.221920664525
0.231941281608
0.23160955274
0.224213201094
0.206768131581
0.186444425369
0.167983537717
0.152677826237
0.139730696033
0.126928823621
0.112590291628
0.0946195360896
0.0751748622379
0.0481105586219
0.0613316139206
0.59427528962
0.561066968072
0.593056167724
0.573765284861
0.508502755564
0.421775520089
0.353597734291
0.307111141306
0.275408594664
0.246811478145
0.229516958769
0.220065306135
0.189166657286
0.157162855193
0.157690071552
0.169405630276
0.151117366039
0.121149225928
0.112575729518
0.126299724575
0.141295220301
0.126378546472
0.0885054404144
0.0524365314049
0.0449178355958
0.0537153169328
0.0755894762419
0.116958121181
0.170252136755
0.225577068614
0.273573314727
0.324498943766
0.383599596002
0.446610506604
0.502621680026
0.553401498193
0.594513786288
0.629310101228
0.664801901616
0.686741024329
0.699369969859
0.692944358015
0.707704543274
0.727960287287
0.736993669619
0.759978940843
0.783746042288
0.814787409164
0.855821377983
0.903734208512
0.957842047895
1.01449811939
1.06345634562
1.09203333299
1.1133710467
1.14451232235
1.16979279811
1.18318504206
1.20071364122
1.22769502783
1.2570329816
1.27692908364
1.28833495301
1.30236700327
1.31954085114
1.33480417846
1.35260657177
1.37123732477
1.39189615901
1.41608749287
1.44217306213
1.44635165033
1.41756232726
1.32966282783
1.22279630218
1.13960920018
1.05927863311
0.992846744208
0.95332233955
0.945417946129
0.961060656374
0.980648437067
0.995184684007
1.01044930108
1.02685926994
1.05007137332
1.0777578687
1.10885416918
1.14414929577
1.18182530905
1.20710285886
1.23401104327
1.26957792667
1.2959254024
1.31230141511
1.327990641
1.34509024242
1.37047983331
1.39532045768
1.4031856824
1.40595269939
1.42458080261
1.45081503721
1.45628710417
1.45546270777
1.45647766483
1.46291229075
1.47796525154
1.49876414717
1.54222014582
1.5159733997
1.38994665712
1.25673091148
1.171009005
1.15164235633
1.16656329231
1.17488693234
1.17806398754
1.17747004442
1.16840184409
1.17032003964
1.19782646289
1.25241745457
1.29164921154
1.28243601759
1.27214015647
1.25833246872
1.23387409383
1.20038188853
1.16494059596
1.11612162795
1.07718803921
1.06510801616
1.07625642019
1.12966027679
1.14687785043
1.08150058859
0.983008270716
0.876712526877
0.793969967649
0.743474983441
0.712239402382
0.707902851303
0.723596934104
0.752907898755
0.773335434664
0.732301298204
0.678446871406
0.627041927259
0.589145123486
0.551778449567
0.511651559498
0.481487943516
0.474866480639
0.46270276187
0.443749380514
0.376024839259
0.288201007565
0.22239630911
0.176387748395
0.115425497256
0.0660851432341
0.0895262479529
0.135780977116
0.111216964483
0.05702707025
0.0631442661211
0.102175714824
0.109158986341
0.115742615294
0.147891862847
0.194289164687
0.228851196761
0.254368038783
0.267050285091
0.265679685156
0.242627319783
0.214195138385
0.191668114877
0.172748029668
0.159593514843
0.155696527283
0.151007447316
0.144180324742
0.13748961888
0.126937587109
0.111853736869
0.0927375304567
0.0581352951921
0.0870729524999
0.760938883478
0.691867942813
0.72435289895
0.702549605786
0.64141917052
0.560392873319
0.487709580289
0.435855087359
0.389874952929
0.336780162833
0.303853427122
0.28490135068
0.226788147748
0.15940626591
0.161847665228
0.200431018943
0.185910946025
0.140516503632
0.13177365691
0.16125615733
0.182574890777
0.165384999679
0.129040080887
0.0961804824109
0.0884302294415
0.089310655501
0.103665067507
0.142183558693
0.200104682745
0.267150192266
0.327697487206
0.390249047246
0.456239257999
0.52358985666
0.587563308894
0.646233199462
0.690645919329
0.725363104255
0.751166171176
0.748861876289
0.743839335429
0.730496318478
0.733922162121
0.744029077092
0.760590269874
0.80492270712
0.848009227258
0.899240223945
0.961090968677
1.0276743957
1.09428395808
1.15896921721
1.21615570298
1.24187063651
1.25466700021
1.28546115737
1.31131535765
1.3191858548
1.3336811897
1.36139018574
1.39096547959
1.41029854544
1.41980614494
1.4350753519
1.45464912246
1.47066516112
1.48068102105
1.48808919157
1.50434974227
1.52936112969
1.56214947195
1.57917424619
1.5330721243
1.38462240488
1.20066416631
1.05741495373
0.940613378792
0.835302396178
0.740817952227
0.684765672708
0.679725897769
0.70136620864
0.734900647636
0.773428269383
0.809565629299
0.849060580473
0.889141951207
0.931998161568
0.983668696281
1.03083709954
1.05559151352
1.07945765328
1.1162897909
1.1308244102
1.1441486175
1.17450312141
1.21973590324
1.27225887209
1.32571294242
1.37487236525
1.41399894444
1.44169765997
1.46185226185
1.47380196608
1.48559705926
1.49902355046
1.50963831101
1.52308874886
1.53550052029
1.57331284505
1.53111259464
1.33487110021
1.12356826218
0.970546369249
0.901340004186
0.884121696957
0.883543809932
0.885373065831
0.877514234076
0.87733446806
0.906650650705
0.967593645818
1.04850220607
1.09979682364
1.10630821619
1.11162372514
1.12172412705
1.12136039355
1.10798048543
1.08675297564
1.04634456
1.01480289768
1.01402463092
1.03607513115
1.09359176684
1.11860001463
1.04340487197
0.918605387616
0.771305326296
0.634971007805
0.545139228874
0.498568118714
0.502180357875
0.536896079441
0.583534310429
0.60600000895
0.575250810937
0.534757783136
0.503670183986
0.492099366116
0.487291654063
0.475867112118
0.464096299497
0.474107687832
0.483309540069
0.454158116321
0.375909143158
0.267870785747
0.19098505052
0.14776073329
0.0941791247554
0.0189743586061
0.0608934352549
0.129765480191
0.138426182418
0.118011926099
0.114577108409
0.118299141334
0.111612090195
0.122055329007
0.173962450819
0.247541167453
0.296439959773
0.310263415664
0.292966380906
0.267824246769
0.238269904865
0.212018182913
0.18872505259
0.162302407417
0.142597145505
0.138088119227
0.132462649029
0.126947556305
0.125031745089
0.121211117613
0.113263041642
0.101351956169
0.0661657873668
0.11174519597
0.89163586316
0.762092592163
0.790860810779
0.783782361827
0.764484999343
0.718527453124
0.665111917333
0.614555532226
0.560526483494
0.502022512263
0.468105679782
0.434237467085
0.344597123152
0.260497589765
0.265867367724
0.28538045661
0.233214121567
0.179611197029
0.193158750499
0.227834440109
0.219784185719
0.186477348487
0.159806267355
0.129959701481
0.128104015568
0.14947255981
0.176236839911
0.213348905526
0.269140156234
0.337504492093
0.396528477702
0.445767479337
0.497234139927
0.567737841625
0.659972837655
0.750394242867
0.809539659704
0.850704194675
0.880138520298
0.870821910746
0.864569738388
0.868183776377
0.879695953526
0.888644834826
0.923731910574
0.988967316583
1.04690628876
1.11113434618
1.18169551108
1.25442213742
1.31900666598
1.37458382454
1.41939083917
1.42738988585
1.42013484501
1.43633213704
1.44962667301
1.44037678832
1.44497084007
1.46253526033
1.48547274756
1.50568653523
1.52856220417
1.55674406251
1.57697116948
1.5843118239
1.57844074523
1.57450835445
1.59588833221
1.64515389243
1.71199123402
1.77290054464
1.74703041
1.57567300061
1.33045257511
1.12255516247
0.96175251248
0.840167892118
0.723270767986
0.621115284133
0.581783121456
0.598945361583
0.642596108166
0.689855157085
0.738206317836
0.788290984721
0.835273613902
0.882995508247
0.940096098892
0.98771907899
1.01042192529
1.04342118663
1.08726616978
1.11546466478
1.16001689111
1.2233701792
1.30721685374
1.38768879247
1.44535567267
1.50128569007
1.54436105314
1.5528067634
1.54435268093
1.54861419861
1.56610802284
1.59029802628
1.61078548407
1.63243953243
1.65784802984
1.71343328866
1.68724189281
1.44806363881
1.15444989125
0.9248565749
0.795004436058
0.73951346714
0.714972388731
0.699861489618
0.694761717067
0.714814349056
0.770621376112
0.858596063873
0.970433310253
1.05836819987
1.08534472138
1.09881712598
1.12023901324
1.13620440499
1.13849789475
1.13722156589
1.13428675482
1.13193308943
1.1407859163
1.15224572306
1.18040466066
1.1813596377
1.08036220975
0.923985257274
0.759479783898
0.597732072907
0.466962432622
0.386095915619
0.377867379736
0.411522682018
0.455050952019
0.480613663552
0.46843117231
0.458573808325
0.462077237125
0.475647715796
0.490519158667
0.498335686708
0.506317890564
0.52899721105
0.549966958395
0.516240295192
0.423604366194
0.293619797723
0.196298138961
0.150030377801
0.106745097304
0.0741404501858
0.100010596255
0.15255293236
0.170410134065
0.157652273312
0.141087710579
0.128608894083
0.119107508506
0.146484483541
0.223790904908
0.308339363301
0.338379502534
0.330597528711
0.300144971937
0.268482562954
0.244651325528
0.231489927556
0.212044862029
0.179340393945
0.152436938492
0.138292679216
0.122326205283
0.114003533711
0.111530092177
0.109683775417
0.108320597358
0.105258937836
0.0708432289508
0.132064957895
1.0025962798
0.812801984736
0.849925373481
0.858296437403
0.863647025215
0.848370954133
0.813144826764
0.763226065953
0.708886977803
0.65609589013
0.61805491941
0.56098334114
0.461492931684
0.406314259576
0.415990326489
0.374908130776
0.287542068937
0.26402023646
0.297847302594
0.290662758378
0.231414333636
0.190011897248
0.166501687539
0.141072120187
0.164401242077
0.219821716735
0.26581354606
0.297772659971
0.337973012675
0.392967710225
0.447606699067
0.498637254743
0.561383770652
0.660136460665
0.780670761684
0.886082980009
0.956619930274
1.00388832031
1.03727041226
1.02740055537
1.02183283859
1.0395936824
1.05267520498
1.06717830351
1.11969005123
1.18687491735
1.24280567883
1.29805813256
1.35742373924
1.41727007116
1.46179599765
1.49997895135
1.53798391683
1.54750510801
1.53939319619
1.54730661972
1.54261139316
1.52653601217
1.54028884248
1.56459789074
1.59077471568
1.61393963881
1.65149128018
1.68698255174
1.6898413696
1.67319748528
1.64323557443
1.61818978013
1.62425721963
1.68267192341
1.78217202583
1.9167277123
1.96743482177
1.80102594037
1.5056371087
1.22659594079
0.997183739248
0.848481426893
0.756539249096
0.673489915564
0.618041318502
0.622019348524
0.648744752468
0.676365825437
0.717667614375
0.762782668216
0.805259977181
0.848172350946
0.89841968473
0.948190853448
0.984822644212
1.0404881709
1.1089232173
1.17583563886
1.2602458249
1.36090603768
1.4728732067
1.54594711023
1.57264308818
1.59567297414
1.61742935289
1.61166821353
1.58466082495
1.58006030222
1.60255862108
1.62619303846
1.6440811352
1.66487229476
1.70354812829
1.80702666792
1.82673218244
1.58331144195
1.25428197595
0.977278000501
0.795013388124
0.702520780785
0.671585908705
0.661774466766
0.673357099636
0.709371840744
0.782767751834
0.891436811767
1.01961288189
1.1182223421
1.14379532855
1.1435882573
1.14836663268
1.16473612709
1.18050241092
1.20237417936
1.23817662429
1.2753979968
1.28771263619
1.26220005065
1.23751624206
1.2072933354
1.08130349305
0.895133474687
0.72583208823
0.594053382332
0.478959554209
0.377705213534
0.345366236192
0.359683611179
0.389699838069
0.433970413615
0.44373496888
0.462131725498
0.49292617968
0.523330295649
0.545695792715
0.555720590003
0.564524630523
0.589611712319
0.619977302466
0.593323293732
0.486339108247
0.342786829857
0.237497858645
0.195078500718
0.169400376592
0.142622713754
0.144077036139
0.165729893583
0.157770115195
0.130881511469
0.107134132871
0.101928071902
0.118953888387
0.177501177751
0.267529997766
0.318136705223
0.307708238408
0.29041018752
0.273231614952
0.254310264202
0.242670739441
0.244531577189
0.235958244062
0.198685686079
0.16152564213
0.136015048587
0.109930985123
0.0973584673076
0.0923847670802
0.0902328352365
0.0935913013816
0.10161228933
0.0727565123407
0.147079430758
1.12312844989
0.881437790391
0.913414981193
0.921554516548
0.942020167004
0.956739164654
0.937128231049
0.885249988245
0.832586864956
0.790369340391
0.754801803714
0.692694374201
0.610571366892
0.575419348589
0.55803820066
0.469311297405
0.385115933569
0.392942933812
0.386029266477
0.299310847593
0.22185733807
0.191056799356
0.166136336841
0.160831959947
0.214099611232
0.294945399539
0.356777616283
0.383060886615
0.398919643891
0.436956228576
0.494139068373
0.57174760543
0.659836970156
0.768847266339
0.892493784457
0.99987353743
1.07923821153
1.12596602427
1.14930376089
1.14119492399
1.14222771548
1.16973131637
1.19138854384
1.22047148855
1.28794208734
1.3551048132
1.40111448777
1.44309600608
1.48766573473
1.5284248834
1.57062906647
1.63325705818
1.70104922624
1.73903403395
1.7495883316
1.74697829703
1.71302839396
1.68605374992
1.68732221546
1.70596560456
1.728726982
1.73237333515
1.73891546191
1.73240002697
1.69960905635
1.67840727716
1.67127185901
1.6664544774
1.66068130082
1.68887279272
1.78199092347
1.96012332074
2.1163466351
2.02642197713
1.72826843171
1.3865648071
1.06026095438
0.819414185714
0.715490889593
0.682686836633
0.653584168118
0.639355059487
0.623712903232
0.621204305424
0.653046129075
0.69379663183
0.739235637273
0.788855441347
0.844727178163
0.914798387938
0.980262585633
1.06101991258
1.16024305187
1.26329149776
1.38915060901
1.52764080641
1.63429569371
1.67263630042
1.67046541446
1.65721073877
1.64363135486
1.62333061924
1.59636872194
1.5944445928
1.61156954107
1.61817531698
1.62574320941
1.65859898941
1.72961026148
1.88232292991
1.94809598241
1.6986035855
1.33972521653
1.04615609428
0.832880903132
0.699908639483
0.657987769683
0.659356849491
0.705754141454
0.779204515433
0.875350715729
0.979682595337
1.09243742021
1.18591479859
1.20832749731
1.20134349815
1.19672440776
1.20852180978
1.2306579196
1.25889691043
1.30037425895
1.3450886182
1.35226987919
1.30975441513
1.28069896752
1.26075432176
1.119168639
0.886214486927
0.66612457106
0.541545383471
0.481336220241
0.40721012622
0.354934079044
0.345346981566
0.367292005195
0.438505426607
0.470168443464
0.50219542087
0.543552809684
0.583207030393
0.61178224523
0.613717079235
0.598192160924
0.607253331243
0.647671956143
0.653108925826
0.55210845062
0.403412405019
0.293076185138
0.245528421409
0.205531468193
0.157964969299
0.140313720361
0.144886176409
0.125715467369
0.078326892378
0.0425352277609
0.0635389331513
0.119123941134
0.197012800601
0.270052038183
0.282961995359
0.250892273086
0.230401978439
0.23239532202
0.237544551671
0.246916920753
0.263152918785
0.266516981344
0.225942346511
0.177089209329
0.138065857806
0.103111319527
0.0831277932849
0.0744106504029
0.0719506133241
0.0791361665497
0.0977703264251
0.0756235629644
0.15810355183
1.28184088072
0.974337580311
0.993106739153
0.992541970261
0.998872423908
1.0222160011
1.03347703313
1.00237617385
0.963888100192
0.933599098416
0.902298233204
0.849280680232
0.794962203284
0.764505303223
0.707962552117
0.596523409419
0.534779462949
0.538185084951
0.453352085257
0.309499422149
0.240699734827
0.211903788831
0.17801471087
0.195845492757
0.271708500229
0.36186793915
0.423283554635
0.445839818849
0.465038854616
0.506806837826
0.575953835955
0.671046906889
0.766653797839
0.862580290649
0.965080972537
1.06788090487
1.15831189286
1.22636272158
1.26823716725
1.28181163141
1.30999512457
1.35448621972
1.37292234468
1.40035889704
1.46325244276
1.51186218054
1.54505580257
1.58469625282
1.62901649447
1.68050748498
1.76190289902
1.85791010921
1.92342354175
1.92920071012
1.89659837664
1.85271549836
1.7931356308
1.74716384549
1.72663801366
1.72804899587
1.71664925076
1.67067354929
1.62284894885
1.55949896154
1.50369414556
1.50161918398
1.55773952769
1.64254483718
1.70350636002
1.73740162749
1.80664147751
1.98283086857
2.19352601054
2.17978327309
1.92069044696
1.57331053755
1.18930772411
0.843200163909
0.652798998375
0.602147154003
0.586562878426
0.564844021392
0.527624956172
0.517051035247
0.558996667067
0.618432766331
0.688340062845
0.760198758493
0.836113469776
0.927434753838
1.01983809478
1.1362024767
1.27273518259
1.40798071723
1.55272868875
1.67604618924
1.74566314975
1.75778189145
1.74023219602
1.70138737175
1.65788695372
1.62374865052
1.59853092299
1.59937323908
1.59787776544
1.5867180495
1.59238599937
1.64625281948
1.76036613007
1.96025450411
2.06568348424
1.81917764516
1.43144624767
1.11619860832
0.882744048017
0.711737687852
0.6341580772
0.623219473641
0.676354940585
0.764828116623
0.871937664933
0.968582892367
1.07969607009
1.19077237767
1.23310150773
1.24483757686
1.25786195483
1.28537010485
1.31264593458
1.32361856511
1.31842776323
1.29874691784
1.28256827875
1.27976520086
1.33641821103
1.37923864746
1.24752356653
0.963236087475
0.657848790588
0.487816602917
0.443256013356
0.402886662655
0.342137633639
0.320457249514
0.353056057583
0.459505699975
0.520082310411
0.559528927174
0.597449574733
0.62956080135
0.64700777853
0.625968759349
0.588985199838
0.596811771747
0.653123340865
0.694967074837
0.618296781911
0.465371669861
0.342064131408
0.274907070081
0.212720103786
0.154638095051
0.138935726141
0.139688774348
0.123754314284
0.0655461254307
0.018436382331
0.0594031072039
0.126869170946
0.203006271788
0.253824684612
0.252665697966
0.208757387846
0.177249669737
0.189102705808
0.214327902062
0.244846156258
0.275968039798
0.286213812851
0.243415172208
0.186689201691
0.136586152944
0.0968471850056
0.0698667763079
0.0581843253165
0.0566750179338
0.0683577084047
0.0967474418736
0.0814758685994
0.166995558716
1.49811263235
1.10035540536
1.07943924391
1.06251417143
1.08275171903
1.11442811049
1.13560570603
1.12787123785
1.10796898613
1.08215425388
1.04703362752
1.00432249727
0.974798339459
0.939150617349
0.848334613354
0.739935000069
0.695280704875
0.642655495504
0.490642509541
0.346593314472
0.279412793307
0.210904266339
0.131430787043
0.159954035244
0.262493860249
0.375362741634
0.460613159216
0.505812193559
0.543395620203
0.596978796435
0.670287430604
0.760720307379
0.852945896051
0.944274589004
1.03300313836
1.13373642532
1.23920560867
1.33408257777
1.40542080442
1.44731678901
1.49678768033
1.55105119174
1.57419918082
1.5971653596
1.6370450714
1.66281754982
1.68746477822
1.72946597059
1.79314136638
1.88737661551
1.98201258831
2.03027537445
2.02627790151
1.96858166569
1.89413102453
1.81381622307
1.72329602779
1.67251817895
1.66329959975
1.65406943971
1.61203499417
1.54277734328
1.46911663738
1.38532370759
1.3182597656
1.30647214554
1.37327551454
1.51564320285
1.67840556437
1.79945142671
1.89129049621
2.04425212462
2.23371032279
2.23607090396
2.02118227745
1.71039257997
1.33936573775
0.957795879078
0.660529528496
0.50941941904
0.457658464137
0.442007955577
0.434095198506
0.45012956826
0.514322676095
0.606911175207
0.709908005834
0.798060031918
0.883619770461
0.985630738393
1.09545019898
1.23511190006
1.38528503735
1.51024019511
1.6124762175
1.69622900855
1.75025156923
1.76318632385
1.76090575439
1.72517696708
1.65618767135
1.58750719437
1.55110302407
1.56034835215
1.56355293513
1.57380512168
1.60365328643
1.66986962705
1.79998636321
2.01524132102
2.13881225441
1.88856107845
1.46805587613
1.12848307144
0.901611335451
0.740486589018
0.641240382787
0.59618476362
0.599773698593
0.648244865476
0.742025655646
0.843020602477
0.98372110986
1.14536492925
1.22057805978
1.23523215027
1.24971270214
1.28761650437
1.321246206
1.32221421105
1.2660209217
1.17386404473
1.13897052553
1.19581665976
1.36601510413
1.50512282758
1.41574457204
1.1100716831
0.738131506298
0.497568595722
0.418483004505
0.377962453154
0.306629775666
0.289755721162
0.350649720022
0.496079007178
0.585875716968
0.625508459242
0.639372786408
0.637926752145
0.622370892673
0.588788001713
0.565397458098
0.592017052397
0.666549511753
0.734046506903
0.678904343056
0.520731464081
0.380968334486
0.293725670819
0.211002427085
0.135410202881
0.138508541388
0.153281821519
0.146384124305
0.0905561611339
0.042960323179
0.0837510512104
0.152600368389
0.212351642989
0.240138185699
0.23374247905
0.190296276026
0.151577648696
0.161197263885
0.196281951883
0.238455625015
0.272110242774
0.279174183749
0.238233183095
0.179931008004
0.129983348862
0.0880737876344
0.0553367115436
0.0424417031713
0.0450689369604
0.0625795847266
0.0988739988838
0.0902438852933
0.177556096156
1.68849296504
1.32854223732
1.28688444448
1.19285020309
1.17003157633
1.1828420968
1.1930943414
1.20199987496
1.20558595912
1.19304789837
1.16018377313
1.12434306196
1.09746385921
1.04244022087
0.949513114075
0.869879890352
0.811850752906
0.690487073139
0.518736000404
0.405970571982
0.324436203843
0.206688021516
0.0652797764869
0.0778319411522
0.223527938835
0.368325682208
0.485972223252
0.563965909696
0.617321062804
0.673405603531
0.742084531821
0.826028631062
0.91262671883
0.997773784808
1.08827959025
1.19944902447
1.32605038005
1.44552635718
1.53873003785
1.60097775083
1.65835304704
1.70154595232
1.71606126361
1.74064017381
1.78858464622
1.83499668026
1.88029418159
1.93568757765
2.0023641535
2.07348175898
2.1160057827
2.10190414228
2.02272153183
1.91085061235
1.82501916821
1.74075094026
1.63392910625
1.5887977251
1.59829538995
1.5898877343
1.5417857802
1.4778734076
1.40806645174
1.33339062546
1.27250056392
1.23191208023
1.24610510106
1.35855547798
1.57813764238
1.82766340235
2.0330490884
2.20136582492
2.3143224566
2.23753218822
1.99928836381
1.73359680671
1.43748231255
1.10254431748
0.76813216133
0.506977630429
0.375756190656
0.358001592927
0.396857207249
0.462568218149
0.540996287811
0.639716095916
0.751714834192
0.844089579481
0.930274478241
1.02534379829
1.12527897001
1.25440892511
1.39613279069
1.51223184138
1.6181206388
1.72220081821
1.76100182162
1.75787137096
1.75739580167
1.70104748198
1.58572278751
1.48478877141
1.45210904382
1.4780077729
1.507585335
1.55545094921
1.61534728804
1.70718596099
1.86112371651
2.09327390939
2.22327119454
1.94662181633
1.46277932828
1.06449037895
0.82279016054
0.705974873821
0.648572183331
0.592476809334
0.534008465734
0.539329182479
0.631977143572
0.752449907372
0.934307674995
1.13774081826
1.22944938841
1.21775481827
1.18271114316
1.17773411232
1.19623071505
1.21073418669
1.16378343189
1.07061512385
1.03615127993
1.11546035904
1.35236164779
1.58566695146
1.55583393198
1.27309841833
0.899932267648
0.608315302121
0.454108828559
0.373062114961
0.280714432237
0.267312585915
0.358005078498
0.539595201239
0.650198001079
0.673889075293
0.643043902291
0.602622969043
0.570427005307
0.556602695831
0.561553215165
0.605739511285
0.693675457483
0.780380920166
0.736992086326
0.569157733476
0.410456230883
0.307533686518
0.208752668357
0.109488238882
0.125632529292
0.175469716579
0.17767757466
0.114799302154
0.0173496422317
0.100066899205
0.181808844628
0.218825359334
0.226042542327
0.225304972018
0.193168575387
0.155401602427
0.155028758316
0.18605635517
0.222312105786
0.242667114998
0.250055516922
0.218587821772
0.164922596115
0.123694525914
0.0824020989335
0.0461387160908
0.0327910943541
0.0405532617277
0.0609396243214
0.101541316016
0.0999971427732
0.189754866347
1.67995240889
1.43107776436
1.48855689115
1.42441021417
1.31711474744
1.24682221964
1.22634042842
1.22108313104
1.23378337362
1.24495087862
1.23418951624
1.20336223727
1.15439440882
1.06884793968
0.984659939853
0.935326317952
0.846569083645
0.683975001482
0.554770893076
0.484474510868
0.377355487632
0.250773140318
0.15368223007
0.125392212469
0.235298937185
0.384434826499
0.51824550309
0.613610275206
0.659991352289
0.696267691413
0.750631297088
0.833222201272
0.933225265406
1.04150662074
1.16399709764
1.30352149685
1.44359240941
1.55301371883
1.61945705246
1.66256589998
1.71743640024
1.76976939874
1.80045406077
1.83717669337
1.90183500497
1.97267721297
2.04683556993
2.1239863877
2.17807401807
2.20126210159
2.17165496892
2.06771777239
1.93150149516
1.82307527522
1.75773021235
1.69455168866
1.60998926935
1.56245178264
1.54606638861
1.50525938937
1.43408470805
1.40013677661
1.38516589474
1.34549812352
1.30583225153
1.25065409417
1.2051984691
1.24539152407
1.44430163914
1.77781355847
2.10276768197
2.34879694794
2.44941733264
2.30052212842
1.99159135537
1.70553716167
1.46339183423
1.20096366882
0.898712963704
0.595212393109
0.382654392436
0.345321936578
0.423922524954
0.515828897084
0.573696757479
0.629608897693
0.715433800238
0.81784865352
0.926742669215
1.02536200872
1.10822634581
1.22719932192
1.38604903368
1.54369138451
1.70873469903
1.83411425149
1.83865513819
1.79139572855
1.72935255188
1.60391404855
1.45671351797
1.36913108816
1.36150031249
1.3869303797
1.4101309829
1.45223067566
1.52588663154
1.67866428889
1.91194449347
2.21864417247
2.37602779199
2.08544930863
1.55077610999
1.07582390767
0.754535900469
0.619896431231
0.605793425492
0.580117842903
0.515412223282
0.5132512826
0.612799320718
0.75772109011
0.963856442192