/*--------------------------------*- C++ -*----------------------------------*\
  =========                 |
  \\      /  F ield         | OpenFOAM: The Open Source CFD Toolbox
   \\    /   O peration     | Website:  https://openfoam.org
    \\  /    A nd           | Version:  8
     \\/     M anipulation  |
\*---------------------------------------------------------------------------*/
FoamFile
{
    version     2.0;
    format      ascii;
    class       volScalarField;
    location    "0.000664";
    object      maxp;
}
// * * * * * * * * * * * * * * * * * * * * * * * * * * * * * * * * * * * * * //

dimensions      [1 -1 -2 0 0 0 0];

internalField   nonuniform List<scalar> 
22800
(
174848.351341
157882.322202
159769.422915
158781.42525
156697.685781
153880.138875
151542.753306
150375.94095
149295.27146
148114.225214
146920.796944
145746.095771
144600.971846
143480.528846
142412.128216
141381.731318
140372.846957
139393.651767
138437.395994
137499.793279
136583.738087
135685.403385
134805.252707
133943.430172
133093.283512
132262.583548
131444.527809
130639.502832
129848.190885
129071.227569
128305.68667
127557.928335
126820.725564
126102.692869
125395.8531
124704.729199
124025.4654
123361.74123
122715.018086
122086.560711
121469.725274
120870.814855
120286.524951
119717.781894
119163.684176
118623.399965
118095.686381
117584.186545
117085.108686
116601.440389
116132.384949
115678.470301
115238.80229
114814.278447
114403.544607
114007.448841
113624.796502
113255.275649
112899.6309
112556.935579
112227.240554
111910.00517
111606.130669
111313.743076
111033.578829
110765.277652
110507.631836
110260.893913
110024.488237
109798.168222
109582.142039
109374.556739
109175.426625
108985.000655
108802.798028
108628.053352
108460.895335
108301.318746
108148.065347
108001.814801
107862.086954
107728.198202
107600.229238
107476.942173
107358.064436
107243.253208
107132.355903
107025.070576
106921.303393
106820.516874
106722.537925
106627.639961
106535.07571
106445.56805
106358.376753
106273.676812
106191.273341
106111.311055
106033.694147
105958.258076
105885.473084
105814.301287
105744.796322
105676.630631
105609.180456
105541.517203
105473.679027
105404.423316
105333.326097
105259.914947
105183.707126
105104.679277
105022.337159
104937.106136
104849.07467
104758.305673
104665.295282
104570.222831
104539.57385
104570.007216
104619.387869
104682.913203
104738.517386
104840.518813
104905.635195
104967.053265
104980.186738
104972.80966
104960.020744
104918.571488
104916.574306
104915.642447
104937.337841
104981.247329
105098.469232
105122.503792
105216.240847
105199.332752
105213.727694
105177.405874
105153.228247
105104.995738
105104.605367
105049.952838
105019.020102
105009.590824
104995.261436
105031.700582
104999.482923
104992.214365
104990.408458
105006.091496
105283.409509
105364.53352
105262.285517
105006.551671
104814.418549
104762.877703
104896.462338
105116.745707
105263.121443
105185.588003
105123.431261
105560.9539
105622.286027
105160.878034
104831.071016
104645.116681
104753.710316
104988.281194
105247.101186
105249.654482
105004.986308
104935.891457
104991.046356
104941.156821
104919.45217
105093.512299
105272.279787
105164.071516
104916.491946
104770.723195
104751.996663
104962.699181
105085.322581
104687.274168
105660.65758
102759.376313
113547.56338
102140.123717
173721.013574
154489.379261
156641.431954
155080.082127
152710.108619
149744.903017
147420.300401
146197.625072
145258.532267
144083.611992
143055.923807
142107.100671
141171.06008
140275.237661
139401.727388
138558.022794
137716.074298
136891.614792
136092.359517
135312.810288
134553.887075
133811.325088
133084.975789
132372.262143
131677.905038
130996.54552
130322.656541
129666.467959
129018.778927
128385.723877
127763.109957
127153.688704
126553.814908
125970.616768
125396.289084
124836.093871
124286.629405
123748.929383
123224.352812
122711.915046
122214.747554
121727.091456
121255.098589
120792.397424
120344.551797
119909.568491
119485.354998
119074.83386
118676.483582
118289.101284
117911.418956
117544.805357
117189.830552
116846.100383
116515.868216
116195.966242
115887.558248
115590.468195
115304.218862
115028.67483
114762.347932
114507.217758
114261.522509
114024.829655
113797.457829
113579.431798
113369.408522
113166.662111
112973.0248
112785.803861
112605.581015
112431.842676
112264.278604
112101.999483
111945.866985
111794.327922
111647.411382
111505.319628
111367.062364
111232.863351
111101.645673
110973.766445
110849.185447
110727.044519
110607.395935
110489.948941
110374.157875
110259.628116
110146.913533
110035.871933
109926.550698
109818.966886
109712.968597
109608.988136
109507.558703
109408.652089
109311.731655
109217.826994
109126.370846
109037.211524
108949.68952
108862.506569
108774.71836
108685.524413
108593.475059
108497.55441
108396.434327
108289.670521
108176.315715
108056.442394
107930.064635
107797.217335
107658.013926
107513.361191
107364.047895
107210.741492
107054.210226
106895.285749
106734.849629
106573.316452
106411.986681
106251.051319
106091.562502
105933.477593
105777.575375
105624.137876
105473.702983
105326.644521
105183.012252
105043.133286
104906.84613
104774.573709
104646.174137
104528.218969
104624.865575
104723.697097
104821.110354
104915.611954
105003.750403
105080.269263
105144.311236
105196.303315
105236.787668
105267.992908
105290.689019
105306.328772
105316.370412
105321.720648
105322.957228
105319.926221
105312.01947
105298.271415
105278.071815
105251.14253
105217.546587
105177.777594
105132.621728
105083.090931
105030.178659
104975.122276
104919.080452
104863.15338
104808.409347
104783.235746
104808.762428
104657.31375
104612.285119
104569.822418
104529.736228
104491.655359
104455.058276
104438.635751
104384.290274
104349.52822
104315.567375
104282.324942
104246.151158
104196.705098
104299.170052
104128.05141
103928.280897
103894.645169
103895.59709
103991.921855
104198.612385
104594.918119
104931.401698
104811.813427
110679.825037
103638.998834
175659.264735
157788.979008
160905.887504
160070.552144
158293.323772
155532.986447
153079.076946
151563.748113
150677.792976
149650.226687
148569.79637
147564.033131
146590.214842
145681.563855
144795.772808
143942.152598
143116.986269
142297.40596
141507.972254
140752.563069
140027.32322
139322.466123
138638.087021
137969.824957
137315.42291
136669.962998
136036.269097
135410.737307
134793.532715
134184.794869
133584.485899
132991.589846
132407.145637
131833.90526
131268.239877
130711.199351
130166.286805
129631.925405
129105.008945
128591.108308
128087.742651
127592.624521
127111.127893
126638.443725
126177.390295
125728.429943
125289.044399
124860.556251
124445.03735
124038.762188
123645.871291
123262.551773
122890.290113
122527.799091
122176.444387
121834.558674
121502.20433
121179.669561
120866.39335
120562.823484
120265.609486
119979.247963
119699.817692
119427.806511
119163.391373
118906.645413
118656.453268
118412.030853
118175.57559
117944.790456
117719.974403
117500.874347
117288.051437
117080.103732
116878.277613
116681.263886
116489.344038
116302.576591
116119.907449
115941.944964
115767.776454
115597.503074
115431.262505
115267.994288
115107.609261
114949.878976
114794.051532
114641.495699
114491.064416
114342.860451
114197.260707
114054.741907
113914.765705
113777.960901
113644.626996
113513.922953
113384.714707
113257.158046
113129.903603
113001.735522
112871.634756
112737.49817
112598.483528
112453.393873
112301.297011
112141.713972
111974.073217
111798.109716
111614.191726
111422.39733
111223.05483
111017.308
110805.197383
110588.176193
110366.949725
110142.473453
109915.643031
109687.21649
109457.897376
109228.891288
109000.569729
108773.633978
108548.820985
108326.324903
108106.784388
107890.705901
107678.228078
107469.757945
107265.641442
107065.88034
106870.540975
106680.137083
106494.557892
106326.141194
106464.862168
106596.704986
106717.635371
106828.622721
106928.912175
107016.176393
107090.685349
107152.339349
107201.506737
107240.373656
107270.363674
107292.510818
107307.853367
107316.663403
107318.903276
107313.955585
107300.987294
107279.200087
107248.187757
107207.88545
107158.636815
107101.081951
107036.140338
106965.089596
106889.497185
106810.776137
106730.383821
106649.963474
106570.859627
106494.169116
106420.857557
106351.682667
106286.948682
106226.746004
106170.866778
106118.733016
106069.697757
106022.975538
105977.878697
105934.067598
105891.965822
105850.965104
105804.97242
105736.375727
105616.752078
105457.184089
105339.825397
105306.042505
105348.129024
105531.647221
105915.968419
106532.685396
107048.247078
106881.337921
111038.603277
104999.667474
175918.826797
158485.058455
161792.247373
161358.668453
159865.538356
157343.296206
155013.135745
153757.311614
152959.471871
152355.777937
151567.022308
150785.942261
150016.746462
149293.245582
148575.146806
147881.936555
147219.917976
146553.409512
145894.499539
145235.118257
144593.829151
143954.53988
143323.191256
142701.771628
142084.242961
141464.82185
140856.409832
140249.884218
139638.03438
139039.454103
138443.320084
137850.177418
137264.218015
136688.666673
136115.853512
135552.536926
134998.926348
134454.313732
133915.32959
133389.811443
132871.659138
132363.84737
131864.999062
131377.485851
130900.148903
130431.890333
129974.505241
129526.895753
129091.526269
128662.622909
128247.598398
127838.304414
127440.64742
127051.667818
126670.94784
126299.193205
125936.356541
125580.082086
125232.977992
124894.404663
124561.527994
124238.339016
123921.461933
123612.178168
123309.631755
123015.096977
122726.659784
122444.749283
122169.436649
121901.14064
121638.383193
121381.764158
121131.419521
120886.64334
120646.881197
120413.044126
120183.476658
119959.154237
119739.827011
119524.912283
119314.004894
119107.763594
118905.615073
118707.388757
118512.567588
118320.965311
118132.852031
117947.994916
117767.122183
117588.951035
117415.537556
117244.604543
117077.511615
116912.897395
116750.499561
116588.392976
116426.334176
116261.663338
116093.385274
115920.420138
115741.210444
115554.777931
115359.818153
115157.058424
114945.292095
114725.206221
114496.811797
114260.985134
114017.733912
113768.363744
113513.511704
113253.860228
112990.03168
112723.079533
112453.463893
112182.640894
111910.757672
111638.606179
111366.579776
111095.514095
110826.078176
110558.627765
110293.523355
110031.071917
109771.669486
109516.056666
109264.09848
109016.408036
108773.028835
108534.380176
108300.557201
108071.725685
107848.004512
107629.9449
107681.504484
107826.849449
107965.374954
108094.873887
108214.260341
108322.314131
108418.093551
108501.641428
108572.387176
108629.671869
108675.660823
108711.918068
108739.323898
108758.209055
108768.421869
108769.283185
108760.048452
108740.119528
108708.936671
108666.433214
108613.263036
108550.025264
108477.7898
108397.74961
108311.475732
108220.423365
108126.364659
108031.096987
107936.388579
107844.032658
107755.067517
107670.474693
107590.729211
107516.212652
107446.916667
107382.47564
107322.327084
107265.611014
107211.465293
107159.598255
107110.328956
107062.935411
107008.718789
106922.138774
106766.068902
106562.000126
106417.36765
106397.828315
106499.166994
106789.882666
107361.23408
108202.613341
108852.049856
108641.160439
111462.477567
106115.773777
175935.385929
158568.672788
161905.887416
161568.559101
160164.780196
157736.826617
155501.382577
154284.301651
153576.805154
153090.488125
152500.974806
151850.647037
151219.03285
150630.244381
150052.785415
149484.582969
148946.803297
148423.014133
147909.924093
147397.64529
146903.443885
146403.293558
145909.481324
145419.429364
144925.044866
144431.134589
143935.85509
143437.73382
142932.192673
142429.691237
141925.048713
141415.275238
140906.335839
140401.543208
139891.44606
139382.040154
138881.631187
138376.513641
137877.912541
137384.167461
136892.201719
136404.904895
135925.327571
135447.853297
134979.489887
134514.749074
134057.08779
133606.897438
133164.488414
132727.074449
132298.231683
131875.075337
131458.679389
131049.62398
130647.4653
130250.336051
129861.921942
129476.995854
129100.039336
128729.169922
128363.808432
128005.356205
127652.33867
127306.626718
126967.007097
126635.278169
126308.513124
125990.072485
125677.096093
125372.257762
125072.398655
124780.297783
124494.360624
124214.546114
123941.031294
123673.477381
123411.48238
123154.954669
122904.26375
122658.580343
122417.424118
122181.352556
121949.666394
121722.761339
121499.840733
121280.790243
121065.490682
120854.324859
120647.357643
120443.481852
120244.180676
120047.000501
119851.912432
119656.800595
119461.185449
119262.131085
119058.531219
118847.724916
118629.829147
118403.449591
118167.804895
117923.066102
117669.205638
117406.708622
117135.720906
116857.691816
116573.134209
116282.853124
115987.611667
115688.386806
115386.002238
115081.648126
114775.697147
114469.118804
114162.139765
113856.031618
113550.634491
113246.753214
112944.31116
112643.964843
112346.179758
112050.792957
111758.483628
111469.197012
111183.386156
110901.203
110622.819942
110348.818391
110079.144029
109813.867252
109553.460193
109297.937743
109047.343461
108802.25931
108742.088291
108890.607561
109029.555725
109158.058094
109276.548395
109385.295925
109483.532929
109571.130243
109648.291886
109715.014367
109771.82913
109819.250601
109857.495215
109886.369779
109905.33398
109913.673237
109910.979003
109896.711674
109870.589631
109832.855353
109783.760046
109723.684134
109653.335082
109573.876802
109486.327071
109392.114907
109293.054507
109190.982638
109087.496089
108984.235618
108882.67962
108784.297473
108690.147988
108601.1766
108517.441739
108439.308635
108366.472927
108298.475011
108234.557412
108174.406832
108118.696247
108066.293339
108005.374662
107901.782676
107712.886531
107470.93543
107312.14932
107328.022388
107514.881329
107950.645533
108725.125726
109775.076162
110516.623948
110228.994046
111592.703511
107091.018732
175936.23823
158576.327939
161917.165461
161594.213457
160206.602593
157798.557291
155588.06037
154384.333147
153704.210729
153244.236894
152728.098177
152128.87801
151547.020189
151024.068107
150517.060449
150020.245996
149554.965152
149107.098312
148671.090797
148249.431984
147851.695081
147452.055685
147056.300681
146668.323737
146279.105622
145889.893031
145500.954693
145104.359557
144706.165955
144302.68461
143898.70801
143486.36703
143073.841781
142660.101464
142240.035047
141818.129717
141400.811806
140975.914002
140551.469971
140128.374539
139701.031007
139274.279185
138850.951384
138426.393855
138003.501494
137579.921934
137161.804871
136743.592019
136327.180619
135915.658225
135504.414151
135098.399775
134691.805522
134289.896561
133890.720795
133493.189217
133100.376578
132708.77395
132321.616835
131937.992682
131557.928795
131181.688365
130810.064255
130442.754204
130080.237737
129723.23806
129370.30524
129024.65508
128683.549911
128349.905143
128020.176161
127699.309544
127382.76918
127072.960908
126769.692099
126472.44251
126181.106871
125896.231971
125617.356777
125343.79289
125076.319765
124814.69459
124558.260316
124307.776672
124061.860522
123820.762208
123583.725015
123350.374106
123120.02552
122891.395617
122664.766952
122436.895434
122206.929577
121972.891872
121733.98339
121487.035605
121232.643021
120968.667135
120695.013557
120412.348799
120119.884724
119818.798203
119509.730868
119192.986495
118870.418939
118542.661384
118210.547539
117875.610135
117538.354704
117199.760417
116860.456585
116521.883451
116183.910348
115847.264003
115512.551765
115180.262422
114850.117917
114523.132999
114198.80775
113877.515327
113559.335408
113244.672384
112933.354573
112625.515412
112321.275345
112020.952364
111724.738295
111432.397945
111144.477699
110860.89789
110581.842783
110307.545095
110038.010971
109773.595654
109554.959716
109705.009099
109844.451128
109972.673525
110089.744817
110196.422373
110293.011878
110380.552822
110459.89852
110531.451554
110595.28688
110651.053448
110698.384949
110736.54302
110764.747032
110782.043027
110788.140273
110782.640365
110765.333501
110736.206206
110694.749948
110641.17626
110575.900192
110500.006079
110414.694828
110321.770139
110222.803008
110119.016646
110011.893089
109903.042837
109794.388396
109687.646664
109583.482447
109483.350075
109388.143131
109298.844788
109215.067405
109136.846877
109063.790168
108996.301345
108935.432796
108879.456211
108812.75479
108692.719157
108474.243879
108200.918887
108038.760508
108102.096118
108395.336682
108987.984224
109964.203272
111181.564168
111990.007743
111600.769778
111622.064332
107893.047701
175936.274774
158576.920895
161918.118105
161596.902446
160211.626794
157806.875601
155600.968995
154400.032538
153725.715539
153271.792182
152773.394044
152189.253223
151625.428824
151119.504382
150637.181308
150168.03446
149733.399677
149317.755211
148918.432319
148536.460709
148184.054297
147838.988828
147500.613365
147174.027337
146848.695194
146529.925153
146212.949389
145889.107563
145570.595552
145245.473135
144924.286983
144596.792178
144270.499425
143942.143365
143609.638429
143278.970611
142948.434433
142613.212659
142274.942014
141938.930772
141596.491674
141253.058806
140906.740856
140555.295028
140202.722645
139843.939311
139485.612044
139123.832005
138758.070843
138393.019394
138023.21974
137654.275756
137279.940121
136905.639144
136530.041129
136153.4452
135773.924373
135395.455676
135016.297377
134637.086399
134258.227832
133881.210606
133505.19349
133131.464045
132760.746347
132393.230568
132028.34125
131668.930261
131312.229526
130961.304776
130614.355108
130273.227175
129936.564128
129605.426626
129279.709658
128960.010893
128644.209987
128335.835646
128032.731173
127734.856428
127443.130032
127157.913224
126877.886498
126603.644287
126334.128933
126068.762157
125806.534398
125547.020049
125288.173132
125028.092494
124765.786504
124498.797524
124225.53582
123943.882407
123653.533065
123353.018978
123042.956435
122722.381995
122392.431853
122054.579269
121708.308114
121355.739816
120997.842987
120634.714907
120268.518435
119899.820666
119529.858143
119159.503987
118789.581577
118420.730244
118053.905445
117689.259266
117327.370126
116968.1858
116612.634928
116260.581874
115912.161031
115567.596038
115226.842369
114889.860925
114557.027765
114228.089401
113903.13777
113582.189021
113265.202223
112952.35641
112643.482601
112338.850034
112038.407503
111742.230468
111450.320972
111162.899779
110880.001485
110601.933796
110328.744924
110303.387224
110443.512441
110573.601046
110693.629256
110803.902915
110904.672278
110996.682497
111080.771032
111157.564752
111227.033051
111288.86026
111342.639865
111387.742313
111423.554771
111449.290543
111464.586613
111469.067551
111462.224312
111443.600959
111412.627475
111369.323009
111313.899514
111246.858814
111169.328304
111082.683261
110988.269044
110887.3017
110781.602268
110672.756763
110562.350938
110451.591992
110341.848206
110235.004704
110131.514703
110032.537427
109938.564967
109850.259623
109767.662924
109692.038108
109625.315568
109565.376494
109491.7279
109353.745238
109106.063168
108807.626045
108651.993014
108769.857573
109186.110021
109927.710393
111101.981949
112447.053845
113298.022394
112761.338393
111666.221667
108516.415723
175936.276102
158576.960846
161918.188341
161597.149964
160212.157866
157807.862204
155602.658957
154402.2019
153728.915173
153276.141779
152781.327319
152200.568996
151641.070877
151139.552732
150663.832298
150202.872862
149777.15794
149373.752109
148985.789405
148619.781139
148286.076554
147962.52744
147649.35439
147351.724397
147058.232158
146774.182377
146495.869827
146213.785339
145942.717139
145665.542221
145396.491503
145127.643329
144860.713827
144597.673598
144333.767815
144077.333937
143822.510903
143569.525879
143312.845247
143059.372499
142800.721625
142540.664703
142277.180803
142005.076822
141730.640172
141444.010575
141156.701281
140860.549473
140558.24876
140252.107138
139935.813072
139618.740912
139291.598574
138960.527192
138624.716793
138282.898111
137935.08084
137584.831946
137229.899829
136872.293366
136510.313537
136146.753238
135782.914847
135417.568351
135052.246005
134687.707882
134324.319493
133961.778655
133601.810462
133244.275655
132889.696473
132538.760354
132190.817361
131847.423897
131507.62608
131173.513141
130842.582982
130517.637284
130197.658143
129882.431454
129571.938551
129267.064872
128965.953323
128668.44564
128373.1858
128079.516841
127786.086077
127491.03291
127192.438693
126889.44295
126579.393409
126261.217832
125934.263328
125597.900502
125252.455908
124896.252445
124532.012403
124158.461905
123777.485078
123390.736932
122998.339807
122602.255326
122203.34878
121802.62621
121401.474953
121000.669103
120600.966074
120203.939627
119809.16818
119417.686829
119029.914497
118645.925795
118266.092709
117890.371594
117519.045613
117152.235235
116789.762417
116431.982392
116078.620734
115729.517722
115385.321892
115045.51472
114710.159742
114379.480117
114053.034034
113730.901213
113413.247307
113099.809064
112790.65656
112485.716839
112185.039335
111888.682604
111596.667406
111309.173887
111026.26643
110754.564439
110892.892632
111021.462251
111141.122642
111252.997761
111357.73219
111455.625888
111546.65686
111630.714531
111707.438552
111776.382008
111837.183868
111889.464456
111932.680255
111966.358863
111990.24935
112003.880516
112006.892963
111998.77526
111979.333506
111948.447566
111905.949712
111851.93463
111787.06854
111711.66767
111626.69745
111533.400899
111433.299788
111328.160974
111219.389705
111108.036898
110996.007766
110884.806447
110775.503867
110669.955306
110568.553778
110472.350641
110382.457473
110300.928704
110230.359623
110167.528232
110085.330043
109925.978574
109647.876249
109327.866536
109181.161768
109359.661448
109893.852245
110785.635768
112130.489928
113572.102853
114449.516618
113735.849103
111526.910268
109032.42528
175936.276141
158576.96323
161918.192954
161597.170367
160212.208259
157807.967343
155602.857784
154402.471611
153729.34357
153276.759426
152782.575331
152202.471096
151643.867882
151143.319763
150669.122906
150210.275113
149787.784607
149387.738033
149003.684838
148641.490866
148313.292282
147997.203602
147693.546703
147405.715036
147125.145351
146856.548104
146595.693244
146332.779367
146084.038769
145829.893008
145589.913238
145352.166825
145121.617588
144898.731041
144681.964235
144478.059599
144279.266991
144089.091273
143899.086159
143714.309861
143527.546171
143341.032102
143149.813173
142949.359728
142748.900455
142532.26115
142312.264837
142082.578268
141845.322881
141601.005502
141343.275623
141083.059965
140809.63426
140529.619745
140241.785424
139944.829398
139640.43395
139328.315977
139010.097729
138684.948357
138353.106749
138016.924651
137676.730021
137332.721973
136985.079455
136635.355999
136284.267531
135931.651446
135578.692863
135225.755604
134874.064219
134522.809833
134174.526425
133826.952377
133482.738672
133142.004724
132803.233003
132468.808087
132137.134993
131808.271011
131481.646821
131157.659165
130834.402108
130510.900963
130186.412549
129858.783926
129526.397326
129187.741611
128841.792827
128487.166332
128122.231007
127748.32843
127364.244448
126971.178663
126569.805249
126160.624304
125745.777338
125324.668606
124900.210116
124472.03547
124042.058398
123611.753116
123181.4482
122752.048681
122324.867164
121900.062263
121478.871855
121061.574184
120648.456628
120240.466588
119836.756101
119438.126074
119044.875188
118656.313552
118273.162658
117895.143236
117522.221227
117154.436224
116791.604683
116433.696914
116080.723188
115732.767562
115389.878613
115051.570628
114718.034239
114389.215712
114064.801404
113744.993649
113429.57199
113118.446874
112811.64753
112509.045523
112210.797078
111916.856592
111627.217218
111342.022694
111226.940334
111358.101877
111480.226615
111594.444807
111701.940642
111803.33743
111898.719981
111987.836023
112070.217214
112145.308993
112212.58278
112271.650128
112321.939247
112363.021829
112394.639715
112416.565239
112428.434276
112429.827288
112420.898397
112401.499434
112371.419693
112330.695443
112279.662758
112217.811473
112145.776591
112064.219963
111973.981661
111876.856592
111774.294238
111667.423048
111558.127307
111447.818174
111338.226483
111231.179742
111127.832884
111029.457788
110937.139863
110853.57327
110781.597975
110715.716924
110621.690691
110436.340152
110124.556628
109780.656984
109634.7539
109878.60169
110521.769728
111571.078795
113053.094135
114571.299636
115452.249832
114542.407546
111314.945893
109491.5169
175936.276145
158576.963358
161918.19322
161597.171902
160212.212605
157807.977409
155602.879053
154402.50274
153729.39617
153276.839268
152782.754592
152202.762791
151644.3236
151143.965083
150670.079653
150211.676608
149789.729069
149390.517555
149007.544306
148646.444603
148319.867463
148005.885755
147705.60454
147420.56067
147144.625412
146881.220477
146626.951154
146371.287771
146131.266029
145888.423068
145660.170166
145439.032519
145228.319174
145027.62754
144837.757904
144665.319565
144502.252081
144354.74568
144211.114975
144077.100512
143944.981364
143816.010332
143682.944441
143540.946592
143400.601123
143244.161283
143083.674544
142912.674671
142734.480452
142546.137147
142344.880981
142138.749998
141919.825726
141692.156583
141454.501665
141205.607221
140949.70783
140681.125563
140406.279653
140121.251983
139827.292521
139527.793546
139218.826666
138905.913134
138585.816634
138261.017308
137932.383211
137599.546894
137263.616382
136925.152896
136586.572738
136244.866208
135904.696243
135562.37691
135220.77543
134880.408176
134538.638202
134197.553192
133855.674607
133513.579583
133169.295462
132822.379631
132472.243316
132118.071019
131756.664045
131388.191288
131010.471424
130623.822357
130226.146822
129818.347422
129399.883472
128972.533792
128536.458672
128093.064568
127643.267333
127189.017289
126731.912819
126271.575176
125811.12295
125350.548262
124891.441165
124434.187851
123980.154438
123529.467704
123083.692881
122642.207541
122205.304711
121774.055539
121347.646536
120927.333409
120512.103598
120102.481702
119698.955497
119300.807624
118908.552731
118521.611786
118140.696523
117764.989056
117394.868392
117030.191883
116670.787911
116316.583777
115967.445785
115623.461804
115284.271424
114950.171662
114620.718575
114296.074611
113975.945603
113660.365034
113349.134789
113042.167348
112739.504075
112441.239509
112147.175378
111857.331218
111571.675352
111591.671636
111720.124521
111841.164308
111954.49347
112060.414528
112159.457789
112252.056837
112338.325654
112417.971409
112490.436021
112555.384624
112612.258494
112660.60373
112700.145758
112730.693847
112752.128631
112764.133198
112766.702485
112759.782203
112742.982515
112716.106318
112678.870613
112630.995687
112572.950746
112504.897579
112427.288024
112341.454788
112248.664243
112150.177329
112047.800103
111943.106246
111837.862434
111733.267701
111631.037465
111532.673909
111439.66484
111354.865545
111280.65733
111208.467114
111098.934637
110884.670638
110537.371841
110165.515696
110011.148512
110321.158349
111073.927589
112285.299605
113876.079163
115459.628845
116299.295376
115192.257643
111638.775677
109872.202654
175936.276146
158576.963363
161918.193234
161597.172009
160212.212949
157807.978288
155602.881098
154402.505985
153729.402227
153276.848862
152782.77836
152202.804146
151644.392115
151144.067083
150670.239111
150211.924554
149790.087008
149391.055794
149008.333484
148647.501845
148321.345134
148007.918206
147708.464744
147424.514702
147149.733342
146888.012286
146635.868335
146382.672086
146145.657596
145907.072341
145683.813767
145469.424377
145267.5537
145078.839389
144902.886128
144748.39079
144605.390321
144482.927375
144368.452168
144268.468397
144174.575796
144086.971235
143996.852999
143899.223723
143804.415517
143694.468147
143581.747775
143458.613328
143328.693594
143187.893692
143036.329515
142877.749476
142708.174231
142528.499641
142337.766993
142136.653908
141927.195076
141703.818325
141473.163823
141230.795997
140978.982256
140719.207897
140448.235184
140171.520531
139885.323222
139592.805678
139293.775781
138988.392018
138677.728587
138362.330288
138043.116271
137718.456679
137392.066445
137060.04316
136724.65456
136386.283228
136042.434684
135694.056406
135339.551329
134979.746829
134612.947806
134238.437598
133855.442176
133464.186657
133061.829163
132649.365746
132223.805332
131788.822851
131342.291248
130886.029123
130420.464371
129947.99569
129468.477418
128984.987236
128497.899829
128008.550637
127519.897101
127030.86
126544.672016
126060.382248
125580.590685
125104.50886
124634.034112
124168.748022
123709.231662
123255.493757
122807.972696
122366.688827
121931.037459
121501.866997
121078.539178
120661.43636
120251.017017
119845.933277
119447.151332
119054.140951
118666.951406
118285.567835
117910.004453
117540.216813
117175.823344
116816.867383
116463.196759
116114.681884
115771.373411
115433.094446
115099.75211
114771.238697
114447.426194
114128.342786
113813.814963
113503.740411
113197.954449
112896.443098
112599.23285
112306.125968
112017.065474
111756.964311
111888.955961
112015.585744
112135.469727
112247.677893
112352.094128
112449.210657
112539.507659
112623.057816
112699.823022
112769.830063
112832.862628
112888.34061
112935.902446
112975.164055
113006.088778
113028.372583
113041.957719
113046.79856
113042.489834
113028.726197
113004.693861
112970.392074
112926.005949
112871.598247
112807.621081
112734.714759
112653.71151
112565.975992
112472.713686
112375.584779
112276.099798
112175.415531
112074.922478
111976.111956
111881.148581
111793.328397
111714.702754
111633.784024
111507.008197
111263.465132
110880.032235
110476.2932
110317.562043
110693.996153
111568.877396
112927.46581
114620.473167
116246.729267
116977.277507
115695.626554
111973.185098
110153.389627
175936.276146
158576.963365
161918.193236
161597.172016
160212.212973
157807.978358
155602.881276
154402.506286
153729.402843
153276.849864
152782.781408
152202.809721
151644.401549
151144.082106
150670.263823
150211.965435
149790.148362
149391.151983
149008.480838