/*--------------------------------*- C++ -*----------------------------------*\
  =========                 |
  \\      /  F ield         | OpenFOAM: The Open Source CFD Toolbox
   \\    /   O peration     | Website:  https://openfoam.org
    \\  /    A nd           | Version:  8
     \\/     M anipulation  |
\*---------------------------------------------------------------------------*/
FoamFile
{
    version     2.0;
    format      ascii;
    class       volScalarField;
    location    "0.000664";
    object      mixAlpha;
}
// * * * * * * * * * * * * * * * * * * * * * * * * * * * * * * * * * * * * * //

dimensions      [1 -1 -1 0 0 0 0];

internalField   nonuniform List<scalar> 
22800
(
1.42014436952e-10
1.42018579981e-10
1.42023856654e-10
1.42031822377e-10
1.42040419476e-10
1.42047995033e-10
1.4205437056e-10
1.42060013742e-10
1.42065508517e-10
1.42071277314e-10
1.42077506364e-10
1.42084246152e-10
1.42091224066e-10
1.42098388404e-10
1.42104547245e-10
1.42109679862e-10
1.42114292737e-10
1.42118835115e-10
1.42123357208e-10
1.42127639823e-10
1.42131272893e-10
1.42134181338e-10
1.42136039929e-10
1.42136638333e-10
1.42136433637e-10
1.42135650384e-10
1.42134267457e-10
1.42132189448e-10
1.42129401869e-10
1.42125987875e-10
1.42121600869e-10
1.42116045074e-10
1.42109478499e-10
1.42101901857e-10
1.42093357011e-10
1.42083786225e-10
1.42073560504e-10
1.42062600006e-10
1.4205179868e-10
1.42041541673e-10
1.42031256624e-10
1.42021062544e-10
1.42010525202e-10
1.42001008387e-10
1.41990049941e-10
1.41978333747e-10
1.41965360185e-10
1.41951303359e-10
1.419365749e-10
1.41921929383e-10
1.4190747181e-10
1.41892797691e-10
1.41878076578e-10
1.41863893669e-10
1.4185087776e-10
1.41840280281e-10
1.4183240926e-10
1.41826244348e-10
1.41821342869e-10
1.41818120353e-10
1.41816696068e-10
1.41816638944e-10
1.41818304357e-10
1.41822708774e-10
1.41829660467e-10
1.41839535641e-10
1.41853161384e-10
1.41871144591e-10
1.41894118577e-10
1.41922603109e-10
1.41957053666e-10
1.41997903582e-10
1.42045973588e-10
1.42094527488e-10
1.42137766416e-10
1.42173197875e-10
1.42200346304e-10
1.42219712796e-10
1.42231873283e-10
1.42237881226e-10
1.4223974508e-10
1.42239182271e-10
1.42236846209e-10
1.42232796878e-10
1.42226610618e-10
1.42217778225e-10
1.42206060225e-10
1.42190737733e-10
1.42171069182e-10
1.42148498803e-10
1.42123674735e-10
1.4209830059e-10
1.42074421477e-10
1.42049238219e-10
1.42022256229e-10
1.41992070225e-10
1.41957491952e-10
1.41921557203e-10
1.41891456317e-10
1.41869285403e-10
1.41854782889e-10
1.41846044463e-10
1.41841118885e-10
1.41840242163e-10
1.41842422596e-10
1.41849410475e-10
1.4186469518e-10
1.41891289027e-10
1.41931884327e-10
1.41990648148e-10
1.42061769987e-10
1.42132849789e-10
1.42182698281e-10
1.42214534954e-10
1.42232771588e-10
1.42241944048e-10
1.42245204561e-10
1.422445537e-10
1.42240043361e-10
1.42228416734e-10
1.42206490628e-10
1.42172859955e-10
1.42126998085e-10
1.42072514314e-10
1.42015156772e-10
1.41969076671e-10
1.41935411984e-10
1.41913633012e-10
1.41901953476e-10
1.41897483433e-10
1.41897521983e-10
1.4190060376e-10
1.41909998256e-10
1.41929569399e-10
1.41964626281e-10
1.42012745037e-10
1.42070991181e-10
1.42115172883e-10
1.4214232607e-10
1.42155870868e-10
1.42159887997e-10
1.4215775117e-10
1.42149565303e-10
1.42131970697e-10
1.42100729909e-10
1.42056379814e-10
1.42004689114e-10
1.41962947815e-10
1.41936536182e-10
1.41922148557e-10
1.41916064611e-10
1.41915916671e-10
1.41920492388e-10
1.41933940084e-10
1.41959629661e-10
1.41997106076e-10
1.42035955595e-10
1.42059411725e-10
1.42069993227e-10
1.42072159038e-10
1.42068697505e-10
1.42059275258e-10
1.42042109357e-10
1.42015403708e-10
1.41984613135e-10
1.41960439862e-10
1.41946123544e-10
1.41937631326e-10
1.41934347383e-10
1.41937182264e-10
1.41947124083e-10
1.41963891605e-10
1.41982495319e-10
1.41993865309e-10
1.41998366714e-10
1.41998286689e-10
1.41994865884e-10
1.41986092741e-10
1.41973357179e-10
1.41962020099e-10
1.41956906698e-10
1.41956110868e-10
1.41957647292e-10
1.41961751362e-10
1.41969409426e-10
1.41978962728e-10
1.41986082072e-10
1.41989712896e-10
1.41991279858e-10
1.41990249897e-10
1.42015785284e-10
1.42022886294e-10
1.42031341021e-10
1.42042367707e-10
1.42053640968e-10
1.42063270939e-10
1.42071668798e-10
1.420795004e-10
1.42087152043e-10
1.42094833702e-10
1.42102849701e-10
1.42111286068e-10
1.42119986193e-10
1.42128616286e-10
1.42136303477e-10
1.42142798182e-10
1.42148649598e-10
1.42154313723e-10
1.42159813107e-10
1.4216499184e-10
1.42169435603e-10
1.42173062568e-10
1.42175704477e-10
1.42177211266e-10
1.42177654753e-10
1.42177272308e-10
1.42176240869e-10
1.42174534749e-10
1.42172260313e-10
1.42169408493e-10
1.42165657064e-10
1.42160736118e-10
1.42154687135e-10
1.42147469162e-10
1.4213919e-10
1.42129910614e-10
1.42120061881e-10
1.42109512184e-10
1.42099071438e-10
1.42089134458e-10
1.42079208757e-10
1.42069300872e-10
1.42058918007e-10
1.42049400267e-10
1.42038190108e-10
1.42025977412e-10
1.42012576935e-10
1.41997867876e-10
1.41982162589e-10
1.41966006564e-10
1.4194964611e-10
1.41932981413e-10
1.41916015605e-10
1.41899291626e-10
1.41883666893e-10
1.41870656455e-10
1.41861158532e-10
1.41853962615e-10
1.4184837767e-10
1.41844667374e-10
1.41842825285e-10
1.41842688958e-10
1.41843733985e-10
1.41847552867e-10
1.41854682037e-10
1.41864851386e-10
1.41878762794e-10
1.4189717662e-10
1.41920906416e-10
1.41950438628e-10
1.41986237007e-10
1.42028437866e-10
1.42077637318e-10
1.42128152448e-10
1.42171668253e-10
1.42206169928e-10
1.4223317109e-10
1.42252821672e-10
1.42265702792e-10
1.42272533362e-10
1.42274868709e-10
1.42274511799e-10
1.42272355858e-10
1.42268020957e-10
1.42260637893e-10
1.42249863677e-10
1.42235834582e-10
1.42218664629e-10
1.42198458717e-10
1.42175987517e-10
1.42151398016e-10
1.42125917789e-10
1.42101718269e-10
1.42076776021e-10
1.42050279129e-10
1.42021095266e-10
1.41987764373e-10
1.41952080631e-10
1.4192026003e-10
1.41896070274e-10
1.41880462428e-10
1.41872101261e-10
1.41867732233e-10
1.41866404452e-10
1.418675639e-10
1.41873580498e-10
1.41888274014e-10
1.41914978334e-10
1.41956530611e-10
1.4201672061e-10
1.42088747492e-10
1.4216028859e-10
1.42209828381e-10
1.42241382817e-10
1.42259528693e-10
1.42269228276e-10
1.42273595736e-10
1.42272491109e-10
1.42265496508e-10
1.42250718369e-10
1.42226102958e-10
1.42190935477e-10
1.42143976037e-10
1.42088849428e-10
1.42030936084e-10
1.41984211189e-10
1.41949941035e-10
1.4192804179e-10
1.41916721709e-10
1.41912574934e-10
1.41912424817e-10
1.41914793062e-10
1.4192350324e-10
1.41942303367e-10
1.4197680372e-10
1.4202427201e-10
1.42082471273e-10
1.42126276494e-10
1.42152692134e-10
1.42165551202e-10
1.42169159774e-10
1.42166172237e-10
1.42156429051e-10
1.4213752338e-10
1.42105060808e-10
1.42059721627e-10
1.42006345129e-10
1.41963771406e-10
1.4193714932e-10
1.41922733072e-10
1.41916095854e-10
1.41915692093e-10
1.41919718138e-10
1.41932004553e-10
1.41956249265e-10
1.41993574096e-10
1.42031535667e-10
1.42054331733e-10
1.42064614295e-10
1.42066940623e-10
1.42062871719e-10
1.4205188754e-10
1.42034170493e-10
1.42008178942e-10
1.41978016673e-10
1.41954355092e-10
1.41939631526e-10
1.41929305919e-10
1.41925748258e-10
1.41929507908e-10
1.41940660496e-10
1.41958343407e-10
1.41977427352e-10
1.4198878978e-10
1.41992852592e-10
1.41991750601e-10
1.41986840118e-10
1.41977185003e-10
1.41964641458e-10
1.41954824334e-10
1.41950971682e-10
1.41950818178e-10
1.41952881223e-10
1.41957782346e-10
1.4196613371e-10
1.4197627334e-10
1.41984208764e-10
1.41988648495e-10
1.41990820562e-10
1.41989838567e-10
1.42018907194e-10
1.4203213735e-10
1.42047032961e-10
1.4206437611e-10
1.42081290406e-10
1.42096080708e-10
1.42109528735e-10
1.4212235905e-10
1.42134805715e-10
1.42147128391e-10
1.42159498476e-10
1.42171375818e-10
1.42182672169e-10
1.42193470856e-10
1.42203278018e-10
1.42211719862e-10
1.42219369437e-10
1.42226814495e-10
1.42234041921e-10
1.42240686671e-10
1.42246420342e-10
1.42251161226e-10
1.42254897892e-10
1.42257441408e-10
1.42258638494e-10
1.42258571483e-10
1.42257713462e-10
1.4225611362e-10
1.42253916153e-10
1.42251232043e-10
1.42247716061e-10
1.42243016258e-10
1.42237103796e-10
1.42229876348e-10
1.42221383095e-10
1.42211532539e-10
1.42200733392e-10
1.42189020887e-10
1.42177381982e-10
1.42166092628e-10
1.42155007652e-10
1.42144141494e-10
1.421327315e-10
1.4212223901e-10
1.42110200598e-10
1.42097059932e-10
1.42082492766e-10
1.42066441774e-10
1.42049432607e-10
1.42031899681e-10
1.42013932221e-10
1.41995225188e-10
1.41975583606e-10
1.41955603071e-10
1.41936293431e-10
1.41919683006e-10
1.4190735177e-10
1.41897824196e-10
1.41890130115e-10
1.41884716434e-10
1.41881593139e-10
1.41880582407e-10
1.41880680729e-10
1.41883193394e-10
1.41889753957e-10
1.41900379068e-10
1.41916032363e-10
1.41937054892e-10
1.41964181512e-10
1.41997620778e-10
1.42038268021e-10
1.42086824104e-10
1.42143602291e-10
1.42199828184e-10
1.42247214134e-10
1.4228480998e-10
1.42313830448e-10
1.42334926278e-10
1.42349031516e-10
1.42356933851e-10
1.42359935803e-10
1.4235973119e-10
1.4235730669e-10
1.42351831576e-10
1.42342578214e-10
1.42329511337e-10
1.42312879407e-10
1.42292938148e-10
1.42269986675e-10
1.42245418949e-10
1.42219212706e-10
1.42192740039e-10
1.42167652565e-10
1.42142370947e-10
1.42115615685e-10
1.42086486011e-10
1.42053319639e-10
1.42016882943e-10
1.41981825271e-10
1.4195357238e-10
1.41933933391e-10
1.41923019584e-10
1.41917397037e-10
1.41914777111e-10
1.41915114931e-10
1.41920232232e-10
1.41934959603e-10
1.41963119809e-10
1.42007197114e-10
1.42070808212e-10
1.42146992352e-10
1.42222706118e-10
1.42274973903e-10
1.42308496236e-10
1.4232815622e-10
1.42338616507e-10
1.42341444087e-10
1.42337673602e-10
1.42327270384e-10
1.42308188382e-10
1.42279106726e-10
1.42240232728e-10
1.42190856821e-10
1.4213524048e-10
1.42076601285e-10
1.42028455269e-10
1.41992059975e-10
1.41967863648e-10
1.41954549672e-10
1.4194873028e-10
1.41946919284e-10
1.41948575594e-10
1.41956506091e-10
1.41974666701e-10
1.42009519543e-10
1.4205786505e-10
1.42118023734e-10
1.42162920961e-10
1.42188346836e-10
1.42199168866e-10
1.42201039141e-10
1.42196219112e-10
1.42183622903e-10
1.42161935339e-10
1.42126636212e-10
1.42079082066e-10
1.42022561602e-10
1.41977230455e-10
1.41947879622e-10
1.41930780565e-10
1.41920713903e-10
1.4191918211e-10
1.41922881988e-10
1.41934252104e-10
1.41956672377e-10
1.41994879998e-10
1.42032708397e-10
1.42055120043e-10
1.42064710844e-10
1.42066630987e-10
1.42061355272e-10
1.42048000175e-10
1.42027574715e-10
1.41999464936e-10
1.41967571979e-10
1.41942199525e-10
1.41925698589e-10
1.41912893927e-10
1.4190914089e-10
1.41913470573e-10
1.41925591629e-10
1.41944081184e-10
1.41963680497e-10
1.4197461809e-10
1.41977704879e-10
1.41976222709e-10
1.4197160411e-10
1.41963057899e-10
1.41951156163e-10
1.41941315272e-10
1.41937596959e-10
1.41937754883e-10
1.41940615154e-10
1.41946920055e-10
1.41956929365e-10
1.41968635571e-10
1.41978322023e-10
1.41985061865e-10
1.41989291957e-10
1.4198870508e-10
1.42022222452e-10
1.42042182498e-10
1.42063305929e-10
1.42086044478e-10
1.42108299064e-10
1.42128820005e-10
1.42148325344e-10
1.42167285438e-10
1.42185812054e-10
1.42204146684e-10
1.42222179518e-10
1.42239014201e-10
1.42254611256e-10
1.42269503794e-10
1.42283240147e-10
1.42295062838e-10
1.42305732031e-10
1.42316043449e-10
1.42325875758e-10
1.42334622152e-10
1.42342194968e-10
1.42348627241e-10
1.42353871177e-10
1.42357619026e-10
1.42359767027e-10
1.42360175231e-10
1.42359543733e-10
1.42358153871e-10
1.42356000316e-10
1.4235338423e-10
1.42349998473e-10
1.42345409848e-10
1.42339392891e-10
1.42331633541e-10
1.42322122946e-10
1.4231080321e-10
1.42298010113e-10
1.42283836258e-10
1.42269553382e-10
1.42255622743e-10
1.42241641094e-10
1.42227945248e-10
1.42213553164e-10
1.42199100302e-10
1.42183281395e-10
1.42166435126e-10
1.42148230158e-10
1.42128716838e-10
1.42108619459e-10
1.4208823466e-10
1.42067466594e-10
1.42045755248e-10
1.42023299543e-10
1.42000939735e-10
1.41978656622e-10
1.41958435369e-10
1.41942554654e-10
1.41929989042e-10
1.41919423466e-10
1.41911703605e-10
1.41906925062e-10
1.41904406301e-10
1.41903029918e-10
1.41904346553e-10
1.41910229472e-10
1.41921695877e-10
1.41939408659e-10
1.41963566056e-10
1.41994706525e-10
1.42033457742e-10
1.42081587616e-10
1.42140051082e-10
1.42209614896e-10
1.42279639883e-10
1.42338207116e-10
1.42384435751e-10
1.4241958781e-10
1.42444410905e-10
1.42460338606e-10
1.42469524345e-10
1.42473718638e-10
1.42473879742e-10
1.42471322466e-10
1.42465111862e-10
1.4245418764e-10
1.42438815752e-10
1.42419273497e-10
1.42396090332e-10
1.42369570702e-10
1.42341502414e-10
1.42312133226e-10
1.42283362489e-10
1.42256505218e-10
1.42228845067e-10
1.42199013959e-10
1.42166797411e-10
1.42130894285e-10
1.42091780771e-10
1.42052821037e-10
1.4201861692e-10
1.4199238401e-10
1.41976565718e-10
1.41967962809e-10
1.41963301193e-10
1.41962826573e-10
1.41967355885e-10
1.41982500238e-10
1.42012914092e-10
1.42061355722e-10
1.42132386052e-10
1.42218118312e-10
1.42304858206e-10
1.42364540655e-10
1.42402729305e-10
1.42424767192e-10
1.42435533524e-10
1.424374268e-10
1.4243222368e-10
1.42418364338e-10
1.42394129932e-10
1.4235995539e-10
1.42316910292e-10
1.42264034677e-10
1.42205337774e-10
1.4214351201e-10
1.42091759375e-10
1.42050840799e-10
1.42021345869e-10
1.42002971223e-10
1.41991848034e-10
1.41984841765e-10
1.41984626522e-10
1.41991584335e-10
1.42011322854e-10
1.42050891913e-10
1.42104359364e-10
1.42170190476e-10
1.42218714874e-10
1.42244711697e-10
1.42253918039e-10
1.42253719464e-10
1.42247036368e-10
1.42231888458e-10
1.42207205259e-10
1.42167943335e-10
1.42115929179e-10
1.42054256905e-10
1.4200372662e-10
1.41969155243e-10
1.41946575376e-10
1.41931742727e-10
1.41927979557e-10
1.41930760015e-10
1.41941275494e-10
1.41962434781e-10
1.42001367079e-10
1.42041511347e-10
1.42065618141e-10
1.4207591879e-10
1.42077513021e-10
1.42070672051e-10
1.42054032748e-10
1.42028809573e-10
1.41996009193e-10
1.41959159218e-10
1.41928800653e-10
1.41908871924e-10
1.41895706693e-10
1.41893539008e-10
1.41898070299e-10
1.41910059581e-10
1.41928142441e-10
1.41947781148e-10
1.41958964123e-10
1.41963579175e-10
1.41963878504e-10
1.4196109556e-10
1.41953778642e-10
1.41941588552e-10
1.41929748068e-10
1.41924591927e-10
1.41924118781e-10
1.41927117732e-10
1.41934491557e-10
1.41946280791e-10
1.41960131306e-10
1.41972239612e-10
1.41981473892e-10
1.4198795195e-10
1.41987994943e-10
1.42025421882e-10
1.42051257385e-10
1.42076679345e-10
1.42103177066e-10
1.4212969332e-10
1.42155620287e-10
1.42180800714e-10
1.42205488795e-10
1.42229748625e-10
1.42253711048e-10
1.42277031755e-10
1.42298939029e-10
1.42319784584e-10
1.42340310534e-10
1.42359586719e-10
1.42376628656e-10
1.42392577206e-10
1.42408119645e-10
1.42422545309e-10
1.42435127085e-10
1.42446311919e-10
1.42456288337e-10
1.4246453616e-10
1.42470674922e-10
1.42474929568e-10
1.42476792576e-10
1.42476904567e-10
1.42476137929e-10
1.42474291256e-10
1.42471546449e-10
1.42467676724e-10
1.42462072184e-10
1.42454243022e-10
1.42443910833e-10
1.42431395435e-10
1.42416897137e-10
1.42400545861e-10
1.42382174729e-10
1.42363227566e-10
1.42344610367e-10
1.42325732691e-10
1.42307070629e-10
1.42287784803e-10
1.4226778002e-10
1.42246343276e-10
1.4222417466e-10
1.42200883702e-10
1.42176548093e-10
1.42151625666e-10
1.4212639405e-10
1.42100523258e-10
1.42073368277e-10
1.42046162907e-10
1.42020669303e-10
1.41996496204e-10
1.41974431027e-10
1.41956312425e-10
1.41941469795e-10
1.41928946147e-10
1.419196438e-10
1.41914012982e-10
1.4191132081e-10
1.41909656344e-10
1.41910823314e-10
1.41916913731e-10
1.41929257439e-10
1.41948032203e-10
1.41973891778e-10
1.42008212735e-10
1.42053056184e-10
1.42109255566e-10
1.42177714864e-10
1.42260499638e-10
1.42347771106e-10
1.42422436628e-10
1.42481929523e-10
1.42527652741e-10
1.42559545167e-10
1.42578757603e-10
1.42589202667e-10
1.42594904535e-10
1.42596554814e-10
1.42594987322e-10
1.42589541732e-10
1.42578011128e-10
1.42560696256e-10
1.42538154388e-10
1.42511467169e-10
1.42481033858e-10
1.42448509683e-10
1.42414603576e-10
1.42380248287e-10
1.42347929653e-10
1.42313860388e-10
1.42276847971e-10
1.42237340526e-10
1.42194720699e-10
1.42149954157e-10
1.42106863717e-10
1.42068279437e-10
1.42035683138e-10
1.42013046007e-10
1.4199996873e-10
1.41993786102e-10
1.41993307108e-10
1.41998486809e-10
1.4201542171e-10
1.42049661485e-10
1.42104499593e-10
1.42184780479e-10
1.42284494014e-10
1.42387775348e-10
1.4246033427e-10
1.42507160433e-10
1.4253369945e-10
1.42545578638e-10
1.42546935532e-10
1.42540641827e-10
1.4252417666e-10
1.42496450882e-10
1.42457874486e-10
1.42409608431e-10
1.42350903304e-10
1.42285211333e-10
1.42215482214e-10
1.42156068586e-10
1.42107669945e-10
1.42070432045e-10
1.4204463316e-10
1.42026436169e-10
1.42014488807e-10
1.42013060057e-10
1.42020649776e-10
1.42043965357e-10
1.42090588656e-10
1.42153443224e-10
1.42230401485e-10
1.42286557371e-10
1.4231455102e-10
1.42322125071e-10
1.42320069407e-10
1.42311362906e-10
1.4229441446e-10
1.4226723528e-10
1.42223341842e-10
1.42164530646e-10
1.42093951701e-10
1.42033139434e-10
1.41989770759e-10
1.41959882951e-10
1.41940182185e-10
1.41934655428e-10
1.4193735218e-10
1.41948721598e-10
1.41972107193e-10
1.42013838047e-10
1.42058809983e-10
1.42085943598e-10
1.42097413042e-10
1.42099274588e-10
1.42090912527e-10
1.42070417175e-10
1.42038928075e-10
1.41998976354e-10
1.4195565396e-10
1.41918807508e-10
1.41894149261e-10
1.41880647047e-10
1.41880109271e-10
1.41884793972e-10
1.41895863113e-10
1.41912114082e-10
1.41931790852e-10
1.41945703827e-10
1.41954329116e-10
1.41957209544e-10
1.41955992703e-10
1.41949110339e-10
1.4193572148e-10
1.41921156956e-10
1.41913863457e-10
1.41912288893e-10
1.41915299991e-10
1.41923334957e-10
1.41936609125e-10
1.41952652538e-10
1.41967348498e-10
1.41978987564e-10
1.41987513002e-10
1.41988033847e-10
1.42027947824e-10
1.42058448128e-10
1.42087273469e-10
1.42116832366e-10
1.42146913002e-10
1.42177641155e-10
1.42207943915e-10
1.42237562181e-10
1.42266550873e-10
1.4229504407e-10
1.42322762159e-10
1.42349329883e-10
1.42375310612e-10
1.42400948352e-10
1.42424935477e-10
1.42447230154e-10
1.42468931216e-10
1.42489754411e-10
1.4250850515e-10
1.42525240912e-10
1.42540623468e-10
1.42554665764e-10
1.4256635438e-10
1.42575820129e-10
1.42583312234e-10
1.42587665518e-10
1.42589332622e-10
1.42589278442e-10
1.42588192349e-10
1.42585620334e-10
1.42581317033e-10
1.42574586742e-10
1.42565102036e-10
1.42552587475e-10
1.42537619084e-10
1.4251993337e-10
1.42499650555e-10
1.424766092e-10
1.42451959112e-10
1.42426723746e-10
1.42401306573e-10
1.42376451778e-10
1.42351421597e-10
1.42325559039e-10
1.42298577496e-10
1.42270924833e-10
1.42242072349e-10
1.42212089748e-10
1.42181177992e-10
1.42149594642e-10
1.42116861304e-10
1.42083430173e-10
1.42050903415e-10
1.42020703249e-10
1.41993074801e-10
1.41968451605e-10
1.41947923269e-10
1.41930293298e-10
1.41915596915e-10
1.41904315919e-10
1.41897675391e-10
1.41895362885e-10
1.41894810234e-10
1.41897127413e-10
1.41905035142e-10
1.41919360612e-10
1.4193998602e-10
1.4196881819e-10
1.42008067314e-10
1.42060002368e-10
1.42126368819e-10
1.4220757307e-10
1.42302932978e-10
1.42404514519e-10
1.42493522262e-10
1.42566100465e-10
1.42623476159e-10
1.42665176636e-10
1.42691364138e-10
1.42705049074e-10
1.42712328633e-10
1.42716054504e-10
1.42715666073e-10
1.42711370308e-10
1.42700560261e-10
1.42682578057e-10
1.42657524301e-10
1.42626904277e-10
1.4259164212e-10
1.42553062593e-10
1.425125804e-10
1.4247012459e-10
1.4242851143e-10
1.42385382846e-10
1.42339630027e-10
1.42290938143e-10
1.42239270842e-10
1.42186004427e-10
1.42136528213e-10
1.42093359192e-10
1.42056445295e-10
1.42029088679e-10
1.4201211971e-10
1.42004315991e-10
1.42004091e-10
1.4201050932e-10
1.42030123348e-10
1.42068924437e-10
1.42131111246e-10
1.42222632921e-10
1.42337840087e-10
1.42460232081e-10
1.4254864558e-10
1.42605900884e-10
1.4263794575e-10
1.42651672748e-10
1.42653419163e-10
1.42646950017e-10
1.4262940294e-10
1.42599591562e-10
1.42557363075e-10
1.42503724254e-10
1.42437430299e-10
1.42361588298e-10
1.42278791482e-10
1.42206651558e-10
1.42147969297e-10
1.42102716872e-10
1.42070430758e-10
1.42047912341e-10
1.4203492157e-10
1.42034708893e-10
1.42043840134e-10
1.42069376332e-10
1.42119958936e-10
1.42191483389e-10
1.42281979683e-10
1.42349464655e-10
1.42383137776e-10
1.42392370166e-10
1.42389966761e-10
1.42379509541e-10
1.42360265244e-10
1.42329995424e-10
1.42280180238e-10
1.42212305817e-10
1.42129449369e-10
1.42056095025e-10
1.42003159746e-10
1.4196677854e-10
1.41943399024e-10
1.41936706385e-10
1.41939793417e-10
1.4195256424e-10
1.41979782066e-10
1.42027581003e-10
1.42080821221e-10
1.42113143933e-10
1.42125950282e-10
1.42127701966e-10
1.42117844809e-10
1.42093281737e-10
1.42055589267e-10
1.42007928445e-10
1.41957155614e-10
1.4191310464e-10
1.41883042004e-10
1.41868136109e-10
1.418678458e-10
1.41872080846e-10
1.41882015586e-10
1.41897657373e-10
1.41919846058e-10
1.41938036664e-10
1.41950034473e-10
1.41955019443e-10
1.41954603447e-10
1.4194722613e-10
1.41931758685e-10
1.41914096055e-10
1.41904764146e-10
1.41902437727e-10
1.41905582193e-10
1.41914190356e-10
1.41928887115e-10
1.41947022579e-10
1.41964017768e-10
1.41977678673e-10
1.41987675082e-10
1.41988607834e-10
1.42030155332e-10
1.42064714878e-10
1.42096850533e-10
1.42129660387e-10
1.421630976e-10
1.42197700769e-10
1.42232713276e-10
1.42266908333e-10
1.42300235155e-10
1.42332833282e-10
1.42364570772e-10
1.42395414783e-10
1.42425814209e-10
1.42455515198e-10
1.42483479284e-10
1.42510289882e-10
1.42536618775e-10
1.42561207911e-10
1.42583127736e-10
1.42603614011e-10
1.42622874426e-10
1.42639904843e-10
1.42654281299e-10
1.42666763329e-10
1.42676903663e-10
1.42683487063e-10
1.42686686439e-10
1.42687488784e-10
1.42686798872e-10
1.42684420133e-10
1.42679968158e-10
1.42672828606e-10
1.42662827237e-10
1.42649171177e-10
1.42632326387e-10
1.4261182803e-10
1.42587896349e-10
1.42560464193e-10
1.42530317654e-10
1.42498394938e-10
1.4246576664e-10
1.42433764517e-10
1.42401955974e-10
1.42369349771e-10
1.42336099047e-10
1.42302533124e-10
1.42267807818e-10
1.4223191584e-10
1.42195175677e-10
1.42157604515e-10
1.42119286509e-10
1.42080655965e-10
1.42042564174e-10
1.42006319473e-10
1.41972873283e-10
1.41943605059e-10
1.4191874951e-10
1.41897657574e-10
1.41881180803e-10
1.41868683316e-10
1.41861479291e-10
1.41859459125e-10
1.41860155318e-10
1.41865132168e-10
1.41876291636e-10
1.4189323809e-10
1.41917058661e-10
1.41950909703e-10
1.41997830892e-10
1.42059630298e-10
1.42137768741e-10
1.42232493776e-10
1.42341933707e-10
1.42456604122e-10
1.42556663559e-10
1.42638893206e-10
1.42705303479e-10
1.42756853043e-10
1.42792871835e-10
1.42813745305e-10
1.42824349589e-10
1.42829359676e-10
1.42828921071e-10
1.4282446689e-10
1.42814265706e-10
1.42796313769e-10
1.42769595279e-10
1.42735212571e-10
1.42694601432e-10
1.42649344689e-10
1.42601350718e-10
1.42550567001e-10
1.42499566495e-10
1.42446693119e-10
1.4239110078e-10
1.42332203331e-10
1.42269556403e-10
1.42205835475e-10
1.42149049601e-10
1.4210177609e-10
1.42063055483e-10
1.42033808028e-10
1.4201447571e-10
1.42005432099e-10
1.42005746357e-10
1.42013613907e-10
1.42035066233e-10
1.42077408775e-10
1.42146255902e-10
1.42248960755e-10
1.42380408007e-10
1.42521526989e-10
1.4262620535e-10
1.42694723225e-10
1.42732157907e-10
1.42747617745e-10
1.42750435598e-10
1.4274496097e-10
1.42729036383e-10
1.42699232856e-10
1.42654284231e-10
1.42595082617e-10
1.42519319337e-10
1.42430631889e-10
1.42332646943e-10
1.42245310496e-10
1.42174570163e-10
1.42120704494e-10
1.42082978174e-10
1.42059006363e-10
1.42047587993e-10
1.42049757939e-10
1.42060923896e-10
1.42086783817e-10
1.42137304083e-10
1.42213242183e-10
1.42314262142e-10
1.42393510166e-10
1.42436836332e-10
1.42452941224e-10
1.42454293486e-10
1.42444443317e-10
1.42422359943e-10
1.42387346793e-10
1.42330437916e-10
1.42253079092e-10
1.42157746963e-10
1.42073043637e-10
1.42012021456e-10
1.41970456658e-10
1.41944147934e-10
1.41935884638e-10
1.41938516277e-10
1.41951582034e-10
1.41981060784e-10
1.42034746392e-10
1.42097126859e-10
1.42135747244e-10
1.42150682856e-10
1.42152580337e-10
1.42142882754e-10
1.42117303477e-10
1.42076177557e-10
1.42022326289e-10
1.41963063389e-10
1.41910428637e-10
1.41874472236e-10
1.41856805227e-10
1.41855665254e-10
1.41858694373e-10
1.41867994679e-10
1.41885566315e-10
1.41911179062e-10
1.41933208688e-10
1.41947304368e-10
1.41953248615e-10
1.41953055207e-10
1.41944760365e-10
1.41926756411e-10
1.41905954593e-10
1.41895008751e-10
1.41892438157e-10
1.41895999285e-10
1.41905365959e-10
1.41921499353e-10
1.41941630296e-10
1.41960885594e-10
1.41976643049e-10
1.4198812019e-10
1.41989383242e-10
1.42032758218e-10
1.42071476504e-10
1.42107333212e-10
1.42143660813e-10
1.42180523884e-10
1.42218754576e-10
1.42257580945e-10
1.42295935653e-10
1.42333149411e-10
1.42369442037e-10
1.42404836142e-10
1.42439503302e-10
1.42473577868e-10
1.42506529613e-10
1.42537896599e-10
1.42568440085e-10
1.4259815174e-10
1.42625122017e-10
1.42649525246e-10
1.42673151351e-10
1.42695142826e-10
1.42714017259e-10
1.42730425946e-10
1.42745354618e-10
1.42757484716e-10
1.42765609275e-10
1.42769880956e-10
1.42770985266e-10
1.42770331915e-10
1.42768109219e-10
1.42763726974e-10
1.4275673495e-10
1.42746564467e-10
1.42732232672e-10
1.42713642665e-10
1.42690501584e-10
1.42663195763e-10
1.42631874876e-10
1.42597494655e-10
1.42560624993e-10
1.42522581909e-10
1.42485193432e-10
1.42447875572e-10
1.42409450454e-10
1.42370236733e-10
1.42330268206e-10
1.42288769565e-10
1.42245950215e-10
1.42202381821e-10
1.42158027124e-10
1.42113135811e-10
1.42067782376e-10
1.42022751142e-10
1.41980277948e-10
1.41941256314e-10
1.41907080876e-10
1.41877854514e-10
1.41853728973e-10
1.41836054734e-10
1.41824533592e-10
1.41818831301e-10
1.41816696021e-10
1.41817375562e-10
1.41824646312e-10
1.41840008394e-10
1.41861801296e-10
1.41892019193e-10
1.41933222503e-10
1.41988034119e-10
1.42058794839e-10
1.42146633969e-10
1.42252490063e-10
1.42375095692e-10
1.42502698642e-10
1.42613809135e-10
1.42704816762e-10
1.42778933441e-10
1.42838662845e-10
1.42883766949e-10
1.42912869999e-10
1.42928294548e-10
1.4293422392e-10
1.4293293441e-10
1.42927146478e-10
1.42916496337e-10
1.42898547784e-10
1.42871638512e-10
1.42835583636e-10
1.42791148439e-10
1.42740313269e-10
1.42685295195e-10
1.42626642184e-10
1.42567064812e-10
1.42505398744e-10
1.42440985905e-10
1.42371489132e-10
1.42296166071e-10
1.4222139941e-10
1.42155987554e-10
1.42103774629e-10
1.42062630564e-10
1.42031522988e-10
1.42010325508e-10
1.42000250388e-10
1.42000403939e-10
1.42009175354e-10
1.4203299514e-10
1.42079898406e-10
1.42156632227e-10
1.422714799e-10
1.42419984653e-10
1.42579590665e-10
1.42698943413e-10
1.42777071728e-10
1.42818997673e-10
1.42835443786e-10
1.42838736217e-10
1.42834225974e-10
1.42821488925e-10
1.427937649e-10
1.42747406281e-10
1.42682421549e-10
1.42596930568e-10
1.42495085383e-10
1.4238161096e-10
1.42279882267e-10
1.42198262638e-10
1.42136309999e-10
1.42093422394e-10
1.42067640813e-10
1.42056126022e-10
1.42057849e-10
1.42068920062e-10
1.42095261941e-10
1.42147471522e-10
1.4222829602e-10
1.42338018461e-10
1.42426961482e-10
1.42478996767e-10
1.42502851619e-10
1.42510089777e-10
1.42502565512e-10
1.4247903793e-10
1.42438832585e-10
1.42374786906e-10
1.42289178878e-10
1.42182930675e-10
1.42087385005e-10
1.42019143337e-10
1.41973531867e-10
1.41944538557e-10
1.41933355024e-10
1.41934332644e-10
1.41946706283e-10
1.41977504308e-10
1.4203567293e-10
1.42105498994e-10
1.42150551545e-10
1.42168189881e-10
1.42171331833e-10
1.42162238151e-10
1.42136313374e-10
1.42093109408e-10
1.42035363389e-10
1.41969191223e-10
1.41908920731e-10
1.41867858803e-10
1.41845924513e-10
1.41842277606e-10
1.41844589768e-10
1.41854251272e-10
1.41874346559e-10
1.41903677661e-10
1.41929333291e-10
1.41944821424e-10
1.41950728849e-10
1.41950074983e-10
1.41940573977e-10
1.4191997782e-10
1.41896370561e-10
1.41884209671e-10
1.41881872006e-10
1.41886014519e-10
1.41896313246e-10
1.41914028497e-10
1.41936302585e-10
1.41957814631e-10
1.41975680537e-10
1.41988501036e-10
1.41989903035e-10
1.42036160735e-10
1.4208070573e-10
1.42121518694e-10
1.42161763473e-10
1.42201665226e-10
1.42242063062e-10
1.42282846408e-10
1.42323878498e-10
1.42364212714e-10
1.42403886844e-10
1.42442839769e-10
1.42481208743e-10
1.42518733036e-10
1.42554760535e-10
1.42589361419e-10
1.4262308411e-10
1.42655212906e-10
1.42684314974e-10
1.42711535068e-10
1.42737874511e-10
1.42761466564e-10
1.42781530846e-10
1.42799401623e-10
1.42815850176e-10
1.42829077633e-10
1.42838068232e-10
1.42842925456e-10
1.42844427314e-10
1.4284402963e-10
1.4284226924e-10
1.42838309314e-10
1.42831511286e-10
1.42821025426e-10
1.42805956794e-10
1.42785837462e-10
1.42760392786e-10
1.4273036645e-10
1.42696032016e-10
1.42658439443e-10
1.42618062868e-10
1.42576091254e-10
1.42533924602e-10
1.42491532116e-10
1.42448030557e-10
1.42403329923e-10
1.42357198918e-10
1.42309302198e-10
1.42259686904e-10
1.4220870635e-10
1.4215674552e-10
1.42103210505e-10
1.4204824156e-10
1.41995627381e-10
1.41947632547e-10
1.41905347488e-10
1.41870305094e-10
1.41841222682e-10
1.4181699189e-10
1.41800037456e-10
1.41790491215e-10
1.41785898223e-10
1.41783105423e-10
1.41783168063e-10
1.41790673183e-10
1.41808478796e-10
1.41835421656e-10
1.41873376471e-10
1.41922873001e-10
1.41985060227e-10
1.42061633039e-10
1.42155840716e-10
1.42269842044e-10
1.42403012321e-10
1.42543200393e-10
1.42666289946e-10
1.42766998198e-10
1.4284905244e-10
1.42914768687e-10
1.42965590467e-10
1.43000720182e-10
1.43020421392e-10
1.43027797628e-10
1.43026597105e-10
1.4302037693e-10
1.43009110868e-10
1.42991429839e-10
1.42965805398e-10
1.42930397661e-10
1.42884536875e-10
1.42829595815e-10
1.42768254345e-10
1.42701901984e-10
1.42633749266e-10
1.42562377359e-10
1.42486390332e-10
1.42402963251e-10
1.42314884271e-10
1.42230837523e-10
1.42158427286e-10
1.42100854663e-10
1.42055587808e-10
1.42021646674e-10
1.41998304252e-10
1.4198821037e-10
1.41989237296e-10
1.41999731208e-10
1.42027527173e-10
1.42080686149e-10
1.42166186282e-10
1.42293022852e-10
1.42457777946e-10
1.42634522774e-10
1.42767051347e-10
1.42854079758e-10
1.42900933584e-10
1.42918659043e-10
1.42921299172e-10