/*--------------------------------*- C++ -*----------------------------------*\
  =========                 |
  \\      /  F ield         | OpenFOAM: The Open Source CFD Toolbox
   \\    /   O peration     | Website:  https://openfoam.org
    \\  /    A nd           | Version:  8
     \\/     M anipulation  |
\*---------------------------------------------------------------------------*/
FoamFile
{
    version     2.0;
    format      ascii;
    class       volScalarField;
    location    "0.000664";
    object      mixMu;
}
// * * * * * * * * * * * * * * * * * * * * * * * * * * * * * * * * * * * * * //

dimensions      [1 -1 -1 0 0 0 0];

internalField   nonuniform List<scalar> 
22800
(
9.89265335244e-07
9.89296057817e-07
9.89335186378e-07
9.89394254113e-07
9.89458002093e-07
9.89514173938e-07
9.89561446728e-07
9.89603288639e-07
9.89644029501e-07
9.89686801378e-07
9.89732984913e-07
9.89782954218e-07
9.89834687948e-07
9.89887802711e-07
9.89933462052e-07
9.89971512709e-07
9.90005709772e-07
9.90039383757e-07
9.90072906915e-07
9.9010465436e-07
9.90131586352e-07
9.90153146479e-07
9.90166924002e-07
9.90171359892e-07
9.90169842508e-07
9.90164036361e-07
9.9015378487e-07
9.90138380737e-07
9.90117716465e-07
9.90092408357e-07
9.90059886885e-07
9.90018700414e-07
9.89970019918e-07
9.89913850238e-07
9.89850501237e-07
9.89779544312e-07
9.89703729542e-07
9.89622464504e-07
9.8954237705e-07
9.89466323127e-07
9.89390058965e-07
9.89314467052e-07
9.89236327366e-07
9.89165753306e-07
9.89084486049e-07
9.88997596463e-07
9.8890137848e-07
9.88797122335e-07
9.88687880199e-07
9.88579248533e-07
9.88472006304e-07
9.88363153114e-07
9.8825394657e-07
9.88148728115e-07
9.8805216338e-07
9.87973538172e-07
9.87915139612e-07
9.8786939847e-07
9.87833030892e-07
9.87809120452e-07
9.87798552469e-07
9.87798128615e-07
9.87810485735e-07
9.87843165572e-07
9.87894744787e-07
9.87968013426e-07
9.88069105805e-07
9.88202520936e-07
9.88372951693e-07
9.88584245931e-07
9.88839771522e-07
9.89142728503e-07
9.8949918529e-07
9.89859178904e-07
9.90179722191e-07
9.90442355812e-07
9.90643573351e-07
9.90787103208e-07
9.90877223391e-07
9.90921746473e-07
9.90935558778e-07
9.90931388025e-07
9.9091407632e-07
9.9088406793e-07
9.9083822269e-07
9.90772765993e-07
9.90685921486e-07
9.9057235881e-07
9.9042657778e-07
9.90259278286e-07
9.90075260784e-07
9.89887151686e-07
9.89710112998e-07
9.89523391889e-07
9.89323318678e-07
9.89099468571e-07
9.88843022194e-07
9.88576487866e-07
9.88353202512e-07
9.88188728182e-07
9.88081135833e-07
9.8801630431e-07
9.87979760065e-07
9.87973255362e-07
9.87989432719e-07
9.88041277392e-07
9.88154674387e-07
9.88351961516e-07
9.8865308885e-07
9.89088922389e-07
9.89616310344e-07
9.90143275809e-07
9.90512772345e-07
9.90748729752e-07
9.90883880511e-07
9.9095185439e-07
9.90976016461e-07
9.90971193267e-07
9.90937769218e-07
9.90851607574e-07
9.90689111345e-07
9.90439851131e-07
9.90099897119e-07
9.89695972834e-07
9.89270673087e-07
9.88928942051e-07
9.88679254562e-07
9.88517708939e-07
9.88431071642e-07
9.88397912649e-07
9.88398198613e-07
9.88421059429e-07
9.88490747108e-07
9.88635918183e-07
9.88895935394e-07
9.89252788762e-07
9.89684679903e-07
9.90012234592e-07
9.902135219e-07
9.9031392382e-07
9.90343700341e-07
9.90327861396e-07
9.90267183808e-07
9.90136759149e-07
9.89905161849e-07
9.89576344612e-07
9.89193048793e-07
9.88883486812e-07
9.88687593017e-07
9.88580874271e-07
9.88535745852e-07
9.88534648481e-07
9.88568589515e-07
9.88668337064e-07
9.88858877067e-07
9.89136814279e-07
9.89424902361e-07
9.89598824956e-07
9.89677280772e-07
9.89693338725e-07
9.89667673863e-07
9.89597813117e-07
9.89470532465e-07
9.8927250424e-07
9.8904416601e-07
9.88864886105e-07
9.88758703786e-07
9.88695715951e-07
9.88671358115e-07
9.88692385164e-07
9.88766124801e-07
9.88890486571e-07
9.89028459843e-07
9.89112780915e-07
9.8914616304e-07
9.89145569582e-07
9.89120201158e-07
9.89055139017e-07
9.88960688351e-07
9.88876606245e-07
9.88838681492e-07
9.8883277898e-07
9.88844174317e-07
9.88874613106e-07
9.88931409936e-07
9.8900226119e-07
9.890550599e-07
9.89081986503e-07
9.89093607183e-07
9.89085968942e-07
9.89275333824e-07
9.89327990831e-07
9.89390684784e-07
9.89472448107e-07
9.8955603705e-07
9.89627439117e-07
9.89689703952e-07
9.8974776895e-07
9.89804498403e-07
9.89861449106e-07
9.89920877177e-07
9.89983420201e-07
9.90047916967e-07
9.90111892923e-07
9.90168877648e-07
9.90217021537e-07
9.90260396072e-07
9.90302381561e-07
9.90343145236e-07
9.90381531501e-07
9.90414469499e-07
9.90441352911e-07
9.90460934814e-07
9.90472103109e-07
9.90475390215e-07
9.90472555546e-07
9.90464910547e-07
9.90452264775e-07
9.90435406545e-07
9.90414268555e-07
9.90386462298e-07
9.90349986903e-07
9.90305149462e-07
9.90251645961e-07
9.90190274954e-07
9.90121487794e-07
9.90048478058e-07
9.89970269639e-07
9.89892866512e-07
9.89819195862e-07
9.89745606679e-07
9.89672147427e-07
9.89595164262e-07
9.8952459344e-07
9.89441471358e-07
9.89350912438e-07
9.89251542187e-07
9.89142463716e-07
9.89025992236e-07
9.88906172415e-07
9.88784830627e-07
9.88661226302e-07
9.8853538234e-07
9.88411325962e-07
9.88295418109e-07
9.8819889961e-07
9.88128436503e-07
9.88075050185e-07
9.88033614844e-07
9.88006087354e-07
9.87992420387e-07
9.87991408939e-07
9.87999162295e-07
9.88027495482e-07
9.88080387614e-07
9.88155833252e-07
9.88259037273e-07
9.88395636676e-07
9.88571660599e-07
9.88790708692e-07
9.89056208915e-07
9.89369157326e-07
9.89733955829e-07
9.90108454473e-07
9.90431018147e-07
9.9068673453e-07
9.9088684112e-07
9.91032462254e-07
9.91127913535e-07
9.91178527742e-07
9.91195832316e-07
9.91193187675e-07
9.91177212456e-07
9.91145091146e-07
9.91090382207e-07
9.91010542496e-07
9.90906579489e-07
9.90779335194e-07
9.90629583537e-07
9.90463032707e-07
9.90280768888e-07
9.90091888802e-07
9.89912489188e-07
9.89727570039e-07
9.89531109987e-07
9.89314709699e-07
9.8906753607e-07
9.8880288729e-07
9.88566865973e-07
9.88387429674e-07
9.88271645992e-07
9.88209618145e-07
9.88177205631e-07
9.88167355132e-07
9.88175956806e-07
9.88220592069e-07
9.88329595347e-07
9.88527688173e-07
9.8883589213e-07
9.89282269725e-07
9.89816326939e-07
9.90346669676e-07
9.90713848399e-07
9.90947695357e-07
9.91082162865e-07
9.91154037334e-07
9.91186399794e-07
9.91178214651e-07
9.91126384961e-07
9.91016876073e-07
9.9083446048e-07
9.90573824425e-07
9.90225752629e-07
9.89817082685e-07
9.8938768211e-07
9.89041185101e-07
9.88787018075e-07
9.88624587274e-07
9.88540619995e-07
9.88509860374e-07
9.88508746841e-07
9.88526313873e-07
9.88590922685e-07
9.88730369256e-07
9.88986249267e-07
9.89338266372e-07
9.89769795225e-07
9.90094547908e-07
9.90290361561e-07
9.90385677626e-07
9.90412425017e-07
9.90390280865e-07
9.90318061309e-07
9.90177920605e-07
9.89937269374e-07
9.8960112274e-07
9.89205329347e-07
9.88889595101e-07
9.88692140808e-07
9.88585209941e-07
9.88535977603e-07
9.88532982625e-07
9.88562846433e-07
9.8865398061e-07
9.88833805439e-07
9.89110621284e-07
9.89392128111e-07
9.89561158838e-07
9.89637399357e-07
9.89654647699e-07
9.89624479111e-07
9.89543035916e-07
9.89411665691e-07
9.89218928338e-07
9.88995244942e-07
9.88819756682e-07
9.88710551823e-07
9.88633963847e-07
9.88607575112e-07
9.88635462077e-07
9.88718183864e-07
9.88849337243e-07
9.88990874337e-07
9.89075140595e-07
9.89105270617e-07
9.89097098231e-07
9.89060681673e-07
9.88989076994e-07
9.8889604796e-07
9.8882323698e-07
9.88794662317e-07
9.88793523783e-07
9.88808825196e-07
9.88845175987e-07
9.88907115402e-07
9.88982315773e-07
9.89041167116e-07
9.89074092817e-07
9.89090201024e-07
9.89082918486e-07
9.89298484247e-07
9.89396589684e-07
9.89507040355e-07
9.89635633351e-07
9.89761040215e-07
9.89870694107e-07
9.89970392343e-07
9.90065507412e-07
9.90157774923e-07
9.90249119958e-07
9.90340813079e-07
9.90428850591e-07
9.90512578808e-07
9.90592615732e-07
9.90665301534e-07
9.90727866599e-07
9.90784558564e-07
9.908397336e-07
9.90893294612e-07
9.90942536517e-07
9.9098502596e-07
9.91020157802e-07
9.91047847644e-07
9.91066695694e-07
9.9107556634e-07
9.91075069773e-07
9.91068711676e-07
9.91056856489e-07
9.91040572681e-07
9.91020682585e-07
9.90994627805e-07
9.9095980004e-07
9.90915985214e-07
9.9086242452e-07
9.90799481824e-07
9.90726478306e-07
9.90646442242e-07
9.90559634084e-07
9.90473368445e-07
9.90389690791e-07
9.90307525279e-07
9.90226979118e-07
9.90142398943e-07
9.90064617533e-07
9.89975373159e-07
9.89877953808e-07
9.89769954575e-07
9.89650949045e-07
9.89524833232e-07
9.8939482733e-07
9.89261592388e-07
9.89122865738e-07
9.88977200444e-07
9.88829012741e-07
9.88685792475e-07
9.8856258584e-07
9.88471115862e-07
9.88400440456e-07
9.88343364419e-07
9.88303204014e-07
9.88280034124e-07
9.88272536049e-07
9.88273265452e-07
9.88291905499e-07
9.88340573983e-07
9.8841939266e-07
9.88535506643e-07
9.88691440416e-07
9.88892636708e-07
9.89140631259e-07
9.89442049082e-07
9.89802067087e-07
9.90222982166e-07
9.90639733328e-07
9.90990908315e-07
9.91269494344e-07
9.9148451549e-07
9.91640809104e-07
9.91745305775e-07
9.91803847207e-07
9.9182608567e-07
9.91824569903e-07
9.91806609211e-07
9.91766049106e-07
9.91697497932e-07
9.91600692115e-07
9.91477469234e-07
9.91329720179e-07
9.91159657029e-07
9.90977605178e-07
9.90783397024e-07
9.90587199201e-07
9.90401253342e-07
9.90213854567e-07
9.90015517223e-07
9.8979956048e-07
9.89553654496e-07
9.89283473502e-07
9.89023490604e-07
9.88813951422e-07
9.88668287416e-07
9.88587335155e-07
9.88545629351e-07
9.88526195553e-07
9.88528701412e-07
9.88566659784e-07
9.88675899128e-07
9.88884762431e-07
9.89211647417e-07
9.89683323317e-07
9.90248111554e-07
9.90809286725e-07
9.91196611787e-07
9.91444994134e-07
9.91590652532e-07
9.91668148066e-07
9.9168909591e-07
9.91661162607e-07
9.91584089666e-07
9.91442713213e-07
9.91227235096e-07
9.90939172538e-07
9.90573241455e-07
9.90160997789e-07
9.89726274516e-07
9.8936928637e-07
9.89099392556e-07
9.88919945619e-07
9.88821199853e-07
9.88778037947e-07
9.88764605804e-07
9.88776890649e-07
9.88835710267e-07
9.88970400317e-07
9.89228869772e-07
9.89587357041e-07
9.90033368782e-07
9.90366181616e-07
9.90554638214e-07
9.90634846806e-07
9.90648708285e-07
9.9061298465e-07
9.90519625488e-07
9.90358875901e-07
9.90097214529e-07
9.89744667374e-07
9.89325583122e-07
9.88989414084e-07
9.88771728632e-07
9.88644901862e-07
9.88570232619e-07
9.88558870388e-07
9.88586314533e-07
9.88670651403e-07
9.88836943581e-07
9.89120305825e-07
9.89400824078e-07
9.89567003884e-07
9.89638115219e-07
9.89652351942e-07
9.89613235437e-07
9.89514212064e-07
9.89362756855e-07
9.89154307317e-07
9.88917782434e-07
9.8872959905e-07
9.88607206693e-07
9.88512226589e-07
9.88484387313e-07
9.88516504011e-07
9.88606413323e-07
9.88743555496e-07
9.88888920861e-07
9.88970039798e-07
9.88992932573e-07
9.88981940275e-07
9.889476868e-07
9.88884303265e-07
9.88796030597e-07
9.88723040431e-07
9.88695461046e-07
9.88696632402e-07
9.88717847557e-07
9.88764611521e-07
9.88838849606e-07
9.88925670619e-07
9.88997509515e-07
9.89047493872e-07
9.89078864787e-07
9.89074512453e-07
9.89323068206e-07
9.89471074802e-07
9.89627698549e-07
9.89796286974e-07
9.89961276221e-07
9.90113403094e-07
9.90257992505e-07
9.90398532132e-07
9.90535851044e-07
9.9067173956e-07
9.9080538411e-07
9.90930142519e-07
9.91045723592e-07
9.91156078912e-07
9.91257862468e-07
9.91345462877e-07
9.91424513799e-07
9.91500911506e-07
9.91573757301e-07
9.91638555981e-07
9.91694658709e-07
9.91742310823e-07
9.91781158719e-07
9.91808923005e-07
9.91824835385e-07
9.91827859343e-07
9.91823181223e-07
9.91812885144e-07
9.91796931543e-07
9.91777551368e-07
9.91752469183e-07
9.91718475569e-07
9.91673899846e-07
9.91616414691e-07
9.9154595365e-07
9.91462086654e-07
9.91367300278e-07
9.91262279434e-07
9.91156446349e-07
9.91053218976e-07
9.90949609331e-07
9.90848113457e-07
9.90741453547e-07
9.90634338644e-07
9.90517094292e-07
9.90392229455e-07
9.90257286933e-07
9.90112638315e-07
9.8996365146e-07
9.89812524847e-07
9.89658547452e-07
9.89497566335e-07
9.89331055214e-07
9.89165244192e-07
9.88999991012e-07
9.88850019307e-07
9.88732233076e-07
9.88639030837e-07
9.88560660668e-07
9.88503397049e-07
9.88467950592e-07
9.88449266633e-07
9.88439056677e-07
9.88448823422e-07
9.88492462225e-07
9.88577516487e-07
9.88708898783e-07
9.88888072093e-07
9.89119019355e-07
9.89406380563e-07
9.89763243747e-07
9.90196657974e-07
9.90712266207e-07
9.91231185645e-07
9.91665115116e-07
9.92007573906e-07
9.92267946846e-07
9.92451796389e-07
9.92569756081e-07
9.92637782636e-07
9.92668843582e-07
9.92670036632e-07
9.92651098719e-07
9.92605105474e-07
9.92524203014e-07
9.92410357673e-07
9.92265618831e-07
9.92093902926e-07
9.91897459661e-07
9.91689528021e-07
9.91471940777e-07
9.91258768974e-07
9.91059758326e-07
9.90854781882e-07
9.9063369871e-07
9.90394914781e-07
9.90128779736e-07
9.89838815273e-07
9.89549957518e-07
9.89296331739e-07
9.89101795604e-07
9.88984484154e-07
9.88920681053e-07
9.88886107694e-07
9.88882587598e-07
9.88916179765e-07
9.89028496325e-07
9.89254042402e-07
9.89613238772e-07
9.90139838157e-07
9.90775286406e-07
9.91418039488e-07
9.91860198029e-07
9.92143078484e-07
9.92306308479e-07
9.92386048581e-07
9.92400070738e-07
9.92361534717e-07
9.9225888498e-07
9.9207938185e-07
9.91826230771e-07
9.91507333868e-07
9.91115552724e-07
9.90680567159e-07
9.9022231294e-07
9.89838656652e-07
9.89535274623e-07
9.89316568019e-07
9.89180309313e-07
9.89097820794e-07
9.89045861573e-07
9.89044265292e-07
9.89095865196e-07
9.89242242445e-07
9.89535653618e-07
9.8993206918e-07
9.90420064713e-07
9.90779707565e-07
9.909723641e-07
9.91040586659e-07
9.91039115158e-07
9.90989590986e-07
9.90877335849e-07
9.90694407704e-07
9.90403408579e-07
9.90017841254e-07
9.89560604019e-07
9.8918591117e-07
9.88929524782e-07
9.88762055037e-07
9.88652038554e-07
9.88624125666e-07
9.88644749435e-07
9.88722745395e-07
9.88879681808e-07
9.89168413307e-07
9.89466098264e-07
9.89644842298e-07
9.89721214373e-07
9.89733034272e-07
9.89682313783e-07
9.8955894197e-07
9.89371913614e-07
9.89128679877e-07
9.88855387913e-07
9.88630216082e-07
9.88482392161e-07
9.88384732578e-07
9.88368652349e-07
9.88402266074e-07
9.88491202008e-07
9.8862533385e-07
9.88770998254e-07
9.88853940942e-07
9.88888169393e-07
9.8889038941e-07
9.88869749229e-07
9.88815481234e-07
9.88725067381e-07
9.88637243437e-07
9.8859899804e-07
9.88595488478e-07
9.88617733136e-07
9.88672427498e-07
9.88759870087e-07
9.8886259763e-07
9.88952399977e-07
9.89020884693e-07
9.8906892716e-07
9.89069246003e-07
9.89346793027e-07
9.89538363494e-07
9.89726853261e-07
9.89923304129e-07
9.90119876995e-07
9.90312066404e-07
9.90498707829e-07
9.90681686425e-07
9.90861477991e-07
9.91039052799e-07
9.91211860063e-07
9.91374182909e-07
9.91528629143e-07
9.91680698117e-07
9.91823499666e-07
9.91949742721e-07
9.92067880444e-07
9.92183004579e-07
9.92289851941e-07
9.92383038368e-07
9.92465875485e-07
9.92539760532e-07
9.92600842013e-07
9.92646303305e-07
9.92677811082e-07
9.92691607463e-07
9.92692436798e-07
9.92686759529e-07
9.9267308409e-07
9.92652757426e-07
9.92624099914e-07
9.9258259453e-07
9.92524613165e-07
9.92448092793e-07
9.92355400406e-07
9.92248017861e-07
9.92126905595e-07
9.91990825483e-07
9.9185047082e-07
9.91712552781e-07
9.91572697364e-07
9.91434431655e-07
9.91291536526e-07
9.91143305804e-07
9.90984454869e-07
9.90820170025e-07
9.90647556255e-07
9.90467187689e-07
9.90282456347e-07
9.90095419367e-07
9.89903629816e-07
9.89702304328e-07
9.89500589061e-07
9.8931155102e-07
9.89132291517e-07
9.88968652464e-07
9.88834273886e-07
9.88724186551e-07
9.88631295267e-07
9.88562295026e-07
9.88520527455e-07
9.88500557559e-07
9.88488210863e-07
9.88496867233e-07
9.88542044351e-07
9.88633604252e-07
9.88772860327e-07
9.88964653164e-07
9.89219178932e-07
9.89551701064e-07
9.89968367212e-07
9.90475835751e-07
9.91089357722e-07
9.91735968383e-07
9.92289046983e-07
9.92729648379e-07
9.93068219678e-07
9.93304349682e-07
9.93446586923e-07
9.93523912467e-07
9.93566122792e-07
9.93578339498e-07
9.93566735648e-07
9.93526422546e-07
9.93441060622e-07
9.93312871875e-07
9.93145975825e-07
9.92948373974e-07
9.92723015709e-07
9.92482152248e-07
9.92231030032e-07
9.91976555366e-07
9.91737142936e-07
9.91484737308e-07
9.91210498266e-07
9.90917739537e-07
9.90601879068e-07
9.90270066216e-07
9.89950635287e-07
9.89664574159e-07
9.89422882073e-07
9.89255020621e-07
9.89158043382e-07
9.8911219352e-07
9.89108641302e-07
9.89147053654e-07
9.89272637741e-07
9.89526530306e-07
9.89933108775e-07
9.90528205228e-07
9.91267153158e-07
9.92032311613e-07
9.92569723964e-07
9.9291648388e-07
9.93112990929e-07
9.93200944898e-07
9.932109912e-07
9.93164392929e-07
9.93042481596e-07
9.92837181095e-07
9.92551507302e-07
9.92194031862e-07
9.91759172326e-07
9.91272468212e-07
9.90755750023e-07
9.9031538939e-07
9.89956612261e-07
9.89680534306e-07
9.8948924621e-07
9.8935431425e-07
9.89265719777e-07
9.89255124812e-07
9.89311406218e-07
9.89484294528e-07
9.89829977115e-07
9.90295929011e-07
9.90866316206e-07
9.91282441794e-07
9.91489854181e-07
9.91545969388e-07
9.91530739353e-07
9.9146623346e-07
9.91340658788e-07
9.91139269285e-07
9.90813998057e-07
9.90378113026e-07
9.89854910143e-07
9.89404020268e-07
9.89082415616e-07
9.8886075565e-07
9.8871463616e-07
9.88673642973e-07
9.88693645468e-07
9.8877797356e-07
9.88951417898e-07
9.89260894038e-07
9.89594363313e-07
9.89795539051e-07
9.89880571669e-07
9.89894372596e-07
9.89832378249e-07
9.89680424051e-07
9.89446943382e-07
9.89150684056e-07
9.88829390174e-07
9.8855609173e-07
9.88373179309e-07
9.88273015582e-07
9.88269026105e-07
9.88303779222e-07
9.88385892925e-07
9.88506441879e-07
9.88652395516e-07
9.88755590732e-07
9.88819564025e-07
9.88840927637e-07
9.88831902571e-07
9.88780856838e-07
9.88681550174e-07
9.88573519003e-07
9.88519418321e-07
9.8850773859e-07
9.88530074132e-07
9.88589674446e-07
9.88688134052e-07
9.88807129063e-07
9.88916124972e-07
9.8900244538e-07
9.89065671868e-07
9.89069534519e-07
9.89365523554e-07
9.89591680314e-07
9.89805398649e-07
9.90024536848e-07
9.90247523362e-07
9.90475289428e-07
9.90699882107e-07
9.90919382143e-07
9.91134197834e-07
9.91345323814e-07
9.91550689439e-07
9.91747516138e-07
9.91939979158e-07
9.9212988687e-07
9.92307554896e-07
9.92472676001e-07
9.92633390176e-07
9.92787593354e-07
9.92926441147e-07
9.93050361705e-07
9.93164257001e-07
9.93268224252e-07
9.93354761894e-07
9.93424840161e-07
9.93480305469e-07
9.93512532996e-07
9.9352487452e-07
9.93524473422e-07
9.93516433115e-07
9.93497392473e-07
9.93465534782e-07
9.93415709077e-07
9.93345490205e-07
9.93252837153e-07
9.93142012394e-07
9.93011062484e-07
9.92860874504e-07
9.92690249486e-07
9.92507698695e-07
9.92320799753e-07
9.92132540244e-07
9.91948432478e-07
9.91763011925e-07
9.9157141082e-07
9.91371504194e-07
9.91166608709e-07
9.9095280517e-07
9.90730607902e-07
9.9050150417e-07
9.90267401285e-07
9.90024751374e-07
9.89776904534e-07
9.89535738908e-07
9.89311802743e-07
9.89106918517e-07
9.88924306229e-07
9.88772052366e-07
9.8864128762e-07
9.88532276623e-07
9.88448596183e-07
9.88399336611e-07
9.88382182165e-07
9.88378082519e-07
9.88395271657e-07
9.88453931337e-07
9.88560194445e-07
9.88713181167e-07
9.88927025018e-07
9.8921810054e-07
9.89603204303e-07
9.90095232323e-07
9.9069713366e-07
9.91403775103e-07
9.92156301582e-07
9.92815494622e-07
9.93352882039e-07
9.93777624814e-07
9.9408628145e-07
9.94280095472e-07
9.94381371897e-07
9.9443524317e-07
9.94462815473e-07
9.94459941009e-07
9.94428151303e-07
9.94348152543e-07
9.94215071249e-07
9.94029643595e-07
9.93803000323e-07
9.93541971565e-07
9.9325635481e-07
9.92956617051e-07
9.9264222779e-07
9.92334040214e-07
9.92014589434e-07
9.91675656645e-07
9.91314901234e-07
9.9093204439e-07
9.90537276864e-07
9.90170543587e-07
9.89850517406e-07
9.89576830129e-07
9.89373983248e-07
9.89248151597e-07
9.89190281808e-07
9.89188613325e-07
9.89236209595e-07
9.89381655522e-07
9.89669356415e-07
9.90130388067e-07
9.90808744269e-07
9.91662396e-07
9.92568967178e-07
9.93223652154e-07
9.93647525597e-07
9.93884729452e-07
9.93986333155e-07
9.9399925938e-07
9.93951377185e-07
9.93821495699e-07
9.93600819825e-07
9.93288194283e-07
9.92891039711e-07
9.92400096654e-07
9.9183832727e-07
9.91224899225e-07
9.90690304047e-07
9.90255353268e-07
9.89919892435e-07
9.89680524761e-07
9.8951356079e-07
9.89417234989e-07
9.89415657974e-07
9.89483366015e-07
9.89672706914e-07
9.90047714904e-07
9.90577885364e-07
9.91248522858e-07
9.91748514555e-07
9.91997959228e-07
9.92066346848e-07
9.92048544146e-07
9.91971083079e-07
9.91828526158e-07
9.91604278532e-07
9.91235189529e-07
9.90732209226e-07
9.90118068579e-07
9.89574233015e-07
9.89181707363e-07
9.88911897844e-07
9.88738495852e-07
9.88688855455e-07
9.88711752602e-07
9.88806474171e-07
9.89008337649e-07
9.89362803484e-07
9.89757561637e-07
9.89997193277e-07
9.90092129674e-07
9.90105115026e-07
9.90032042366e-07
9.89849943167e-07
9.89570483006e-07
9.89217070736e-07
9.88840527653e-07
9.88513789606e-07
9.88290782426e-07
9.88180201884e-07
9.88178048155e-07
9.88209466695e-07
9.88283168019e-07
9.88399202947e-07
9.88563795293e-07
9.88698722432e-07
9.88787711096e-07
9.88824684073e-07
9.88821598694e-07
9.88766881686e-07
9.88652156924e-07
9.88521143673e-07
9.88451921105e-07
9.88434663813e-07
9.88457989316e-07
9.88521843168e-07
9.88630857406e-07
9.88765371943e-07
9.88891422274e-07
9.88992738216e-07
9.89066873875e-07
9.89073791263e-07
9.89381892689e-07
9.89638145126e-07
9.89876401387e-07
9.90119632858e-07
9.90367490914e-07
9.90623966004e-07
9.90883448373e-07
9.91136846608e-07
9.91383786273e-07
9.91625303061e-07
9.91860421129e-07
9.92088899005e-07
9.92314063257e-07
9.92534034764e-07
9.92741124799e-07
9.92939656552e-07
9.93134606006e-07
9.93316659947e-07
9.93478939612e-07
9.93630596754e-07
9.93773170652e-07
9.93899230404e-07
9.94005640516e-07
9.94098025008e-07
9.94173075172e-07
9.94221798717e-07
9.9424547686e-07
9.94251414873e-07
9.9424630896e-07
9.94228704264e-07
9.94195755521e-07
9.94142915322e-07
9.94068892788e-07
9.93967817482e-07
9.93843135184e-07
9.93691401455e-07
9.9351424183e-07
9.93311153772e-07
9.93087951414e-07
9.9285157675e-07
9.92609954538e-07
9.92372946726e-07
9.92137350387e-07
9.91895823062e-07
9.91649497559e-07
9.91400812497e-07
9.91143511789e-07
9.90877538771e-07
9.90605251173e-07
9.90326774329e-07
9.90042730046e-07
9.89756336419e-07
9.89473904896e-07
9.89205139094e-07
9.88957099566e-07
9.88740024037e-07
9.88555661522e-07
9.88399204441e-07
9.88276975226e-07
9.88184261466e-07
9.88130816181e-07
9.88115828751e-07
9.88120993757e-07
9.88157916319e-07
9.88240704901e-07
9.8836642008e-07
9.88543119398e-07
9.88794202617e-07
9.8914218944e-07
9.89600445579e-07
9.90179739425e-07
9.90881821714e-07
9.91692723196e-07
9.9254209919e-07
9.93283015306e-07
9.93891742408e-07
9.94383254607e-07
9.94764714172e-07
9.95031213804e-07
9.95185641688e-07
9.9526409157e-07
9.95301155049e-07
9.95297910368e-07
9.95264959338e-07
9.95189491643e-07
9.95056678867e-07
9.94858996008e-07
9.94604584767e-07
9.94304053683e-07
9.93969101752e-07
9.93613842349e-07
9.93237878014e-07
9.92860252044e-07
9.92468698682e-07
9.92056944161e-07
9.91620636031e-07
9.91156468737e-07
9.90684255788e-07
9.90263361126e-07
9.89912917851e-07
9.8962584163e-07
9.89408977969e-07
9.89265622653e-07
9.89198558571e-07
9.89200889027e-07
9.89259231922e-07
9.89418307683e-07
9.89732261372e-07
9.90242652516e-07
9.91003851499e-07
9.91977738492e-07
9.9302286236e-07
9.9379782677e-07
9.94304955036e-07
9.9458198085e-07
9.94696378518e-07
9.94717229139e-07
9.94676719636e-07
9.94558881978e-07
9.94338329025e-07
9.94005662218e-07
9.935674411e-07
9.9300651589e-07
9.9234974527e-07
9.91623922558e-07
9.90976801488e-07
9.90452527265e-07
9.90053241885e-07
9.89773553407e-07
9.89595819378e-07
9.89511155813e-07
9.89527245496e-07
9.89610036998e-07
9.89801768396e-07
9.90176294992e-07
9.90739148812e-07
9.91487713898e-07
9.92074791107e-07
9.92395697566e-07
9.92514972157e-07
9.92524986898e-07
9.92452036435e-07
9.9228847901e-07
9.92029137153e-07
9.91607556786e-07
9.91034369818e-07
9.9032783021e-07
9.89699897371e-07
9.89247422992e-07
9.88939176738e-07
9.88744050585e-07
9.8868276036e-07
9.8870227982e-07
9.88799189244e-07
9.89017820976e-07
9.89415936029e-07
9.89878449991e-07
9.90164754368e-07
9.90275467731e-07
9.90289532865e-07
9.90217648447e-07
9.90028029327e-07
9.89723132922e-07
9.89323838192e-07
9.88884343988e-07
9.88493939594e-07
9.88227207528e-07
9.88096139587e-07
9.88087682119e-07
9.88110155105e-07
9.88179152651e-07
9.8830950874e-07
9.88499506099e-07
9.88662912071e-07
9.88767461977e-07
9.88811550097e-07
9.88810115616e-07
9.88748593024e-07
9.88615053058e-07
9.88460751751e-07
9.88379555145e-07
9.88360486016e-07
9.88386903066e-07
9.88456385309e-07
9.88576058756e-07
9.88725377002e-07
9.88868191965e-07
9.88985057663e-07
9.89070174841e-07
9.89079541756e-07
9.89401193503e-07
9.89688278226e-07
9.89954115887e-07
9.90223415974e-07
9.90496655997e-07
9.90780001801e-07
9.91067729694e-07
9.91351929889e-07
9.91627645121e-07
9.91896506544e-07
9.92158683842e-07
9.92415449828e-07
9.92667801115e-07
9.92911812811e-07
9.93144067134e-07
9.93370203268e-07
9.93590161191e-07
9.93789807762e-07
9.93970438174e-07
9.94145303999e-07
9.9430806035e-07
9.94447739432e-07
9.94569164589e-07
9.94679632455e-07
9.94769388106e-07
9.94829503305e-07
9.94861109732e-07
9.94869280525e-07
9.94864446388e-07
9.94848000596e-07
9.9481557592e-07
9.94763840372e-07
9.94688584777e-07
9.945825341e-07
9.94444967342e-07
9.94273711936e-07
9.94071620375e-07
9.93839793092e-07
9.93585296939e-07
9.93312344274e-07
9.93030673433e-07
9.92753818489e-07
9.92477455997e-07
9.92192861744e-07
9.91902393456e-07
9.91606299471e-07
9.91298833154e-07
9.90981542105e-07
9.90658659462e-07
9.90329906874e-07
9.89997133066e-07
9.89660888771e-07
9.89326988627e-07
9.89012015251e-07
9.8872260313e-07
9.88469106402e-07
9.88252299184e-07
9.88073316786e-07
9.87942187155e-07
9.8785670521e-07
9.87814395568e-07
9.8779855212e-07
9.87803594223e-07
9.87857541557e-07
9.87971520947e-07
9.88133205097e-07
9.88357378055e-07
9.88663014541e-07
9.89069536535e-07
9.89594251024e-07
9.90245454988e-07
9.9103000493e-07
9.91938387111e-07
9.92883445219e-07
9.93706066467e-07
9.94379652694e-07
9.94928088306e-07
9.95369976322e-07
9.95703612417e-07
9.95918864818e-07
9.9603294061e-07
9.96076791264e-07
9.96067254762e-07
9.96024449974e-07
9.959456847e-07
9.95812936947e-07
9.95613902446e-07
9.9534719772e-07
9.9501846321e-07
9.94642328473e-07
9.94235180481e-07
9.93801060278e-07
9.93360021539e-07
9.92903438978e-07
9.92426430305e-07
9.91911670884e-07
9.91353637141e-07
9.90799602735e-07
9.90314788746e-07
9.89927734211e-07
9.89622691077e-07
9.89392034097e-07
9.89234846514e-07
9.89160132108e-07
9.89161270824e-07
9.89226317388e-07
9.89402950312e-07
9.89750719812e-07
9.90319567336e-07
9.911707217e-07
9.92270886124e-07
9.93452754226e-07
9.94336186991e-07
9.94914313791e-07
9.9522449871e-07
9.95346163167e-07
9.95370519088e-07
9.95337154283e-07
9.95242928785e-07
9.95037821154e-07
9.94694813794e-07
9.94213912946e-07
9.93581121129e-07
9.92827069577e-07
9.91986649371e-07
9.91232981647e-07
9.90628130302e-07
9.90168926001e-07
9.89850985968e-07
9.89659839172e-07
9.8957446284e-07
9.89587238032e-07
9.89669323974e-07
9.89864623972e-07
9.90251663458e-07
9.90850712978e-07
9.91663717477e-07
9.92322560547e-07
9.92707930353e-07
9.92884577989e-07
9.92938174843e-07
9.92882459415e-07
9.92708235176e-07
9.92410482345e-07
9.91936099734e-07
9.91301865966e-07
9.90514494811e-07
9.89806225569e-07
9.89300235351e-07
9.88961983917e-07
9.8874694786e-07
9.88663997496e-07
9.88671248796e-07
9.88763025977e-07
9.88991445066e-07
9.89422806381e-07
9.89940517883e-07
9.90274494383e-07
9.90405236019e-07
9.90428524574e-07
9.90361120433e-07
9.90168951016e-07
9.89848665554e-07
9.89420511118e-07
9.88929791626e-07
9.884827542e-07
9.88178144615e-07
9.88015414373e-07
9.87988356984e-07
9.8800551157e-07
9.88077191744e-07
9.88226275182e-07
9.88443861613e-07
9.88634166868e-07
9.88749045896e-07
9.88792861237e-07
9.88788011551e-07
9.88717542137e-07
9.88564772652e-07
9.88389657238e-07
9.88299444656e-07
9.88282102885e-07
9.88312833685e-07
9.88389232073e-07
9.88520642551e-07
9.88685860378e-07
9.88845415441e-07
9.88977919332e-07
9.89072999246e-07
9.89083396595e-07
9.89426423486e-07
9.89756705381e-07
9.90059277702e-07
9.90357601981e-07
9.90653348469e-07
9.90952736349e-07
9.91254945002e-07
9.91558960133e-07
9.91857768685e-07
9.92151652394e-07
9.92440160343e-07
9.92724310782e-07
9.93002174626e-07
9.93268925906e-07
9.935250877e-07
9.93774722783e-07
9.94012535831e-07
9.94227925997e-07
9.94429370571e-07
9.94624282432e-07
9.9479885076e-07
9.94947305954e-07
9.95079524058e-07
9.952012136e-07
9.95299068576e-07
9.95365577653e-07
9.95401508845e-07
9.95412618702e-07
9.95409676872e-07
9.95396654538e-07
9.95367361068e-07
9.95317072001e-07
9.95239499863e-07
9.95128021172e-07
9.94979169371e-07
9.94790905648e-07
9.94568724331e-07
9.94314640923e-07
9.94036416976e-07
9.93737554187e-07
9.9342684737e-07
9.9311465799e-07
9.92800757452e-07
9.92478603826e-07
9.92147527276e-07
9.91805810832e-07
9.91450965566e-07
9.91083335234e-07
9.9070553273e-07
9.90320407112e-07
9.8992355203e-07
9.89516001884e-07
9.89125848377e-07
9.88769896078e-07
9.88456248293e-07
9.88196292971e-07
9.87980530171e-07
9.87800747426e-07
9.8767494467e-07
9.87604108304e-07
9.87570026026e-07
9.87549301833e-07
9.87549766665e-07
9.8760545859e-07
9.8773758063e-07
9.87937490059e-07
9.88219078471e-07
9.88586247869e-07
9.89047481727e-07
9.89615294938e-07
9.90313700321e-07
9.9115858532e-07
9.92145174791e-07
9.93183336529e-07
9.94094521375e-07
9.94839780079e-07
9.95446832322e-07
9.95932907282e-07
9.96308749726e-07
9.96568511733e-07
9.96714177951e-07
9.96768713968e-07
9.96759838013e-07
9.96713849223e-07
9.96630551569e-07
9.96499818141e-07
9.96310339093e-07
9.96048494262e-07
9.95709307189e-07
9.95302901941e-07
9.94849074391e-07
9.94358081975e-07
9.93853667341e-07
9.93325318019e-07
9.9276268179e-07
9.92144811329e-07
9.91492323222e-07
9.90869547594e-07
9.90332873027e-07
9.89906086735e-07
9.89570472192e-07
9.89318798599e-07
9.89145699829e-07
9.89070843633e-07
9.89078459415e-07
9.89156281954e-07
9.89362404326e-07
9.89756560207e-07
9.9039038497e-07
9.91330347789e-07
9.92550792344e-07
9.93859392826e-07
9.94840173331e-07
9.95484020563e-07
9.95830582764e-07
9.95961679625e-07
9.95981205345e-07