/*--------------------------------*- C++ -*----------------------------------*\
  =========                 |
  \\      /  F ield         | OpenFOAM: The Open Source CFD Toolbox
   \\    /   O peration     | Website:  https://openfoam.org
    \\  /    A nd           | Version:  8
     \\/     M anipulation  |
\*---------------------------------------------------------------------------*/
FoamFile
{
    version     2.0;
    format      ascii;
    class       volScalarField;
    location    "0.000664";
    object      O2;
}
// * * * * * * * * * * * * * * * * * * * * * * * * * * * * * * * * * * * * * //

dimensions      [0 0 0 0 0 0 0];

internalField   nonuniform List<scalar> 
22800
(
6.62291941132e-135
6.19838319124e-133
2.25531395699e-131
3.72541314681e-130
8.22653939347e-129
3.70412940921e-127
1.73604514904e-125
7.80170529891e-124
3.00341853358e-122
8.37469860943e-121
4.43324311916e-119
1.53332085143e-117
2.51074354069e-116
8.20772589679e-115
4.78815661888e-113
1.1670247354e-111
6.80623115796e-110
3.08274174058e-108
1.26028819425e-106
1.62230339036e-105
9.74045359874e-104
1.06115670159e-102
6.36213616611e-101
3.1157070092e-99
4.67283573395e-98
1.6917822622e-96
3.15873130767e-95
1.18696333486e-93
1.46365293909e-92
4.77017286569e-91
7.61736016603e-90
1.29833056529e-88
1.02806363027e-86
6.05102987603e-86
1.19840112824e-84
1.34773689539e-83
2.46778620067e-82
3.23294162464e-81
1.10580724831e-79
4.81403164289e-79
1.69843931492e-77
3.92380347615e-76
3.21611080336e-75
1.40055892458e-73
7.51572986132e-73
1.59192666351e-71
1.59196561114e-70
2.11755816265e-69
2.38264362795e-68
2.31803339896e-67
2.41710343128e-66
1.5742631568e-65
1.06912476629e-64
6.6698768756e-64
4.74716964181e-63
1.58062715707e-62
1.60222919167e-61
7.33552772882e-61
4.10057323842e-60
1.50418752989e-59
9.52242481614e-59
2.18633021514e-58
6.39979997389e-58
2.08445218168e-57
5.7087632143e-57
1.61440509929e-56
4.87977159854e-56
1.8374469809e-55
4.45345130105e-55
9.21902995485e-55
1.62993497017e-54
2.70727242266e-54
3.58455046696e-54
4.36914500694e-54
4.44878260905e-54
3.79993766987e-54
3.18391682249e-54
2.45901308632e-54
1.74641814688e-54
1.06413669277e-54
5.96057369664e-55
3.76783739982e-55
2.62113342822e-55
4.04914650479e-55
2.10999175575e-54
2.59868606358e-53
1.92250115402e-52
3.03102757579e-51
2.57617620302e-50
5.30925246749e-49
6.98451268481e-48
1.73938614846e-46
5.92744128004e-46
4.46737800168e-45
1.49093728194e-44
6.66140355069e-44
2.85082223682e-43
8.21129113305e-43
5.3158918611e-42
1.15042737821e-41
2.84992879758e-41
1.30394484711e-40
3.22137818717e-40
6.48129885067e-40
1.50501761316e-39
4.02076849048e-39
1.08993262223e-38
2.10006860531e-38
3.33590951959e-38
4.16289317091e-38
4.10984829995e-38
3.6004579107e-38
2.50945198637e-38
1.83591924728e-38
7.97178603977e-39
4.2697014654e-39
1.77408893607e-39
8.43325666627e-40
5.40438883066e-40
2.67164224682e-39
7.00447933842e-39
6.89103553091e-38
3.40253948493e-37
2.26306984856e-36
5.05207117042e-36
2.10008870765e-35
5.3629873909e-35
1.7340068829e-34
2.52692073177e-34
6.44098894779e-34
1.37214749015e-33
3.22511181282e-33
6.44884245346e-33
1.07260509658e-32
1.39603535302e-32
1.49951547535e-32
1.41837640923e-32
1.1468469792e-32
8.30912961505e-33
4.47779322974e-33
2.15482343237e-33
1.82593687153e-33
4.93187922591e-33
1.81401118988e-32
4.59080746636e-32
1.62728973955e-31
5.94635681445e-31
1.06392618958e-30
3.01945749833e-30
7.37515350959e-30
2.35758643194e-29
5.82604446511e-29
1.2221057341e-28
2.0234916186e-28
2.74843082186e-28
2.83740312503e-28
2.53905804392e-28
1.81892585748e-28
1.02271530447e-28
5.28861519372e-29
2.67466932386e-29
1.34857498753e-29
8.28391630174e-30
8.28930285332e-30
1.25278678965e-29
2.91558461488e-29
4.86673756333e-29
1.04036196434e-28
1.54886452612e-28
2.46789109586e-28
3.94629945602e-28
6.31434369104e-28
1.14678207082e-27
3.04643143457e-27
6.70245015815e-27
1.81474316581e-26
4.92187671068e-26
1.08079260008e-25
2.30015661912e-25
3.43100826182e-25
6.14943438452e-25
9.12342508678e-25
1.0351498009e-24
1.05057274005e-24
9.24449225177e-25
7.47528717775e-25
4.94638495836e-25
2.97605480475e-25
1.71210783694e-25
9.83850747954e-26
3.15138642741e-131
2.14772417213e-129
6.93194763914e-128
1.15287522977e-126
1.55412125916e-125
3.77831191643e-124
7.07137351566e-123
1.03622870006e-121
1.22264616591e-120
2.01439229043e-119
7.3874141152e-118
3.08795495974e-116
9.71849981633e-115
5.54865468653e-113
2.43503130371e-111
1.67835893732e-109
7.14953215563e-108
3.41980615181e-106
8.18284399353e-105
1.16727638588e-103
1.98518043594e-102
4.91122095592e-101
2.55839018232e-99
1.16831875056e-97
7.14925532974e-96
1.02469183684e-94
1.75761882472e-93
5.47014885751e-92
2.22075558029e-90
4.927058793e-89
5.17745524684e-88
2.18728570751e-87
8.58351554403e-86
2.16033332805e-84
4.96876072554e-83
1.10441454607e-81
8.39720044109e-81
1.09546051936e-79
1.28420766681e-78
2.81102932495e-77
3.32232455571e-76
6.61099836308e-75
3.89065945695e-74
4.42818708445e-73
1.20764131574e-71
6.59226864578e-71
1.07784070123e-69
2.72280353363e-68
3.04495820511e-67
3.06618391638e-66
1.86440487841e-65
1.24213923344e-64
1.29461900462e-63
1.22023688545e-62
5.72473449408e-62
3.24929850048e-61
2.14134714997e-60
1.30951637965e-59
1.27357204238e-58
4.84552138052e-58
1.53292774106e-57
3.6392205301e-57
1.02951664818e-56
5.04216273603e-56
1.56913936532e-55
3.29990677198e-55
1.5223248185e-54
4.91435018146e-54
1.23755244756e-53
2.88457209669e-53
5.30105871997e-53
8.20530132611e-53
1.13706544953e-52
1.29852324413e-52
1.30765068215e-52
1.19684952212e-52
1.01379708583e-52
6.5235345516e-53
4.64174252757e-53
3.20261927709e-53
1.69831021377e-53
1.06878712021e-53
6.20837867551e-54
1.23697087072e-53
3.33811785026e-53
4.87922186231e-52
5.29888458128e-51
4.91862864186e-50
8.73963567615e-49
6.82893516113e-48
3.63422741398e-47
3.05667601302e-46
2.6538956804e-45
8.69471464612e-45
3.93099449027e-44
5.35745974208e-43
1.39824217366e-42
7.09320448928e-42
4.56485950807e-41
1.70543439808e-40
5.22545990656e-40
1.23085165951e-39
4.07407838128e-39
1.22658522774e-38
2.47570851621e-38
8.34170373831e-38
2.13834731582e-37
3.80109529948e-37
5.559416048e-37
7.17805020319e-37
7.17840427664e-37
6.59747539865e-37
4.49573490575e-37
2.57088197811e-37
1.32886625203e-37
7.25603533618e-38
3.34797935007e-38
1.49228017614e-38
8.53718558736e-39
1.30272764782e-38
5.82468100187e-38
1.90737179043e-37
1.8607911849e-36
5.41189716464e-36
1.7882356581e-35
9.04793252514e-35
3.2809795321e-34
9.22077709349e-34
2.33186519361e-33
6.01916381877e-33
1.35935963105e-32
3.394290605e-32
5.64341178642e-32
1.11469925423e-31
1.41192094193e-31
1.49749980321e-31
1.41385478243e-31
1.13601433586e-31
8.56533047935e-32
4.25657321944e-32
2.04848395294e-32
1.39766936258e-32
1.51712958931e-32
4.76204293289e-32
3.15137127332e-31
9.15058077121e-31
3.01324463966e-30
9.47961238642e-30
2.78141802592e-29
7.05888327405e-29
2.47652428893e-28
6.31454487986e-28
1.37923534491e-27
2.24288079921e-27
3.46983406944e-27
3.29471352011e-27
3.0079392003e-27
2.32979352138e-27
1.36084226567e-27
7.90223069844e-28
3.81116258413e-28
1.59756030714e-28
7.87086490418e-29
6.91908244348e-29
9.07645998283e-29
2.09198536712e-28
5.05396295888e-28
8.76847517714e-28
1.61964444994e-27
2.71484476878e-27
4.19310281427e-27
6.27347606176e-27
1.09738430072e-26
3.91974417e-26
8.4214316249e-26
2.55768102563e-25
5.80281009241e-25
1.4466941759e-24
2.94696128209e-24
6.68317898372e-24
1.27111270527e-23
1.9170724024e-23
2.23029613326e-23
2.27446394133e-23
1.83424916279e-23
1.40738556271e-23
8.00572188336e-24
4.46770448235e-24
2.24094161797e-24
1.34950919759e-24
7.2499844528e-128
5.52911685114e-126
1.36392282469e-124
3.15385464343e-123
4.04020543766e-122
1.08379949025e-120
1.6692428503e-119
2.34389742174e-118
1.97062453821e-117
3.89139049896e-116
5.04859846934e-115
9.12743110102e-114
2.90891623946e-112
1.00001196746e-110
6.95509544418e-109
1.9675152404e-107
8.08174929225e-106
2.38789086309e-104
9.70467022862e-103
1.98918026081e-101
4.37290836997e-100
9.09975748992e-99
3.57387320369e-97
1.61166748989e-95
1.07753322472e-93
1.43761496262e-92
8.66413976205e-91
1.76030182792e-89
5.85288677028e-88
1.94589992557e-86
4.67835195019e-86
4.6064784795e-85
3.76337431525e-84
1.82191822294e-82
7.05851890246e-81
3.27112029046e-79
8.25705352043e-79
6.39794894977e-78
9.00906782984e-77
8.01946740446e-76
1.30179747697e-74
1.66784779055e-73
1.42343726269e-72
3.03436499305e-71
1.36486126497e-69
9.0765970485e-69
7.26485514727e-68
2.53670509245e-67
1.55288898331e-66
3.72433833533e-65
6.51266579855e-64
4.89978944852e-63
1.27529531108e-62
5.24227230508e-62
4.95334314889e-61
5.63458028581e-60
5.41681468412e-59
1.68586881947e-58
1.1724082697e-57
6.51836863452e-57
2.73523657795e-56
1.50606394059e-55
4.38464424565e-55
1.04759523954e-54
4.1799461235e-54
1.31146734221e-53
4.41118689486e-53
9.36674108713e-53
2.38550920756e-52
5.74748476053e-52
1.48198358202e-51
2.21444275652e-51
2.9525364313e-51
3.39934048114e-51
3.50297951718e-51
3.2592523231e-51
2.71628558639e-51
2.01420907159e-51
1.31518586409e-51
7.38626629379e-52
4.35020757136e-52
2.59065806662e-52
1.69463684548e-52
2.54669092648e-52
1.07176626812e-51
2.84549561044e-50
7.0493767547e-49
5.23495645048e-48
7.59245795136e-47
8.95991489892e-46
3.27386736025e-45
1.48090904526e-44
8.50766935038e-44
3.19892092187e-43
1.82377767578e-42
1.41008922072e-41
4.63465999485e-41
1.21559544594e-40
5.05537877413e-40
2.02362653053e-39
1.11792361172e-38
2.8725347559e-38
6.37789242287e-38
2.25653732023e-37
5.95690565174e-37
1.36923866665e-36
3.26550429053e-36
6.60168298149e-36
1.03119429678e-35
1.15846155141e-35
1.0579385063e-35
1.01108964311e-35
7.57415904606e-36
4.73073688308e-36
2.626401007e-36
1.25944956536e-36
5.92312970566e-37
2.60977635842e-37
1.45689283908e-37
1.88008915058e-37
8.34462821142e-37
6.44609424573e-36
2.39320748699e-35
5.79775518903e-35
2.61316411118e-34
1.0258617643e-33
2.58925536822e-33
8.34793007634e-33
2.32228014582e-32
6.0802176202e-32
1.34943321098e-31
3.57631862445e-31
5.89516099104e-31
1.076558097e-30
1.25945989411e-30
1.36998009762e-30
1.35163787534e-30
1.01378665854e-30
7.46811257274e-31
4.81355010312e-31
2.36810320262e-31
1.49574096077e-31
1.38882798152e-31
6.54276917491e-31
2.0348877179e-30
4.62933722705e-30
1.98360152924e-29
6.38059360046e-29
2.14743431063e-28
8.9832923182e-28
2.50339777424e-27
8.4363634198e-27
1.95787710885e-26
3.45458029027e-26
5.14780725684e-26
5.51227983922e-26
4.82224330594e-26
3.53238275196e-26
1.77095906583e-26
1.06261504619e-26
5.20688035132e-27
2.18286402162e-27
7.89938637643e-28
5.59637526935e-28
6.88106009257e-28
1.34273928705e-27
5.02564016559e-27
1.07629329178e-26
2.1834602142e-26
3.53096597499e-26
6.75968640145e-26
1.30066893297e-25
1.97348390358e-25
5.23809802576e-25
9.92298940569e-25
2.01965147277e-24
5.9439551608e-24
1.90478719027e-23
3.98072244383e-23
7.60634323075e-23
1.51609470558e-22
2.02942661372e-22
2.55097618593e-22
2.9942352864e-22
2.97305195986e-22
2.18157906474e-22
1.36268595441e-22
7.44976120556e-23
4.07278315961e-23
2.28048161727e-23
1.1611978104e-124
1.16405564776e-122
3.35807106754e-121
7.58585745748e-120
1.09823655437e-118
2.73172129447e-117
4.24600575137e-116
5.88875962036e-115
5.22277681093e-114
8.30662108318e-113
9.28929993629e-112
1.20853656262e-110
1.66891281275e-109
1.84594831315e-108
4.49080939054e-107
5.77547255474e-106
2.76837784824e-104
1.27579903425e-102
4.5724676712e-101
1.00870826992e-99
2.28196090316e-98
1.58151046453e-96
3.58068488674e-95
6.38642544703e-94
3.04713395279e-92
5.11829019702e-91
1.49406470882e-89
6.33344371853e-88
1.16202725725e-86
2.83789556428e-85
2.31699870834e-84
4.75872631324e-83
5.21479775197e-82
5.44764644811e-81
2.06201295815e-79
4.71840798671e-78
5.42528694897e-77
4.77145005694e-76
5.16839864453e-75
1.0651862145e-73
1.96802931692e-72
1.57699881852e-71
1.12699574876e-70
4.02775534598e-69
2.54847829967e-68
2.53002798898e-67
2.45621835918e-66
1.29172492609e-65
7.74157466619e-64
2.23955027028e-63
3.74254628624e-62
3.5245335893e-61
8.88356474231e-61
6.95476086008e-60
4.43352526913e-59
2.84540962852e-58
1.99189957017e-57
1.32911134626e-56
5.05072613875e-56
2.63106228913e-55
7.75817279553e-55
2.60006497731e-54
8.22273043847e-54
2.46273578631e-53
7.56281159618e-53
2.49055500518e-52
7.44519659712e-52
2.93826658367e-51
7.69297955839e-51
1.27602215474e-50
3.05937409329e-50
4.65622003718e-50
6.32341432344e-50
7.81375504352e-50
7.91839553389e-50
7.65133526753e-50
6.43596871203e-50
4.40085188454e-50
2.92023806144e-50
1.84119951313e-50
9.94269980121e-51
6.13931048158e-51
4.73261149524e-51
8.28110097701e-51
4.45171896401e-50
8.29707846331e-49
7.56689040938e-48
8.75332048021e-47
4.7150745774e-46
1.92446651239e-44
8.09584817689e-44
4.38297264883e-43
2.28804987992e-42
1.12571128713e-41
5.23609076436e-41
2.35596176314e-40
1.04190009593e-39
3.35937304302e-39
1.40271370255e-38
3.0101584843e-38
1.12865043894e-37
6.02784731701e-37
1.27950845512e-36
4.3124382656e-36
1.1595705781e-35
1.94669994134e-35
5.30476150035e-35
1.01344733279e-34
1.56915341074e-34
1.66681848432e-34
1.79757828782e-34
1.6348257253e-34
1.14124566104e-34
5.62986497932e-35
3.50033624449e-35
1.8295397426e-35
8.84731309456e-36
3.89340770615e-36
1.94508719222e-36
2.41554781042e-36
9.03272167932e-36
5.30638825879e-35
1.29228931843e-34
3.68254541672e-34
3.48242739451e-33
1.0369039215e-32
3.03248105725e-32
8.92714872453e-32
1.91654134475e-31
5.40799811245e-31
1.23307227989e-30
2.90575807213e-30
5.16619198688e-30
8.38785662437e-30
9.74925024564e-30
1.06266486515e-29
1.19337037658e-29
1.1124726501e-29
7.7508408642e-30
4.99375828626e-30
2.47356886031e-30
1.5527338531e-30
1.53932861551e-30
3.08867917489e-30
1.53444992615e-29
5.46688685538e-29
1.87760493469e-28
1.00523147023e-27
2.08422498489e-27
8.87639049157e-27
3.09022034403e-26
1.50932240949e-25
3.59261474474e-25
7.61223852033e-25
1.06821873153e-24
1.15037232456e-24
1.04812717665e-24
7.14818132098e-25
3.10657071848e-25
1.46775025819e-25
6.69326905977e-26
2.73615482098e-26
8.10916917598e-27
5.16481588324e-27
5.14674592286e-27
8.49725851896e-27
2.83272345451e-26
1.44025469124e-25
3.55927015246e-25
4.65819527192e-25
9.56335451049e-25
2.13991374458e-24
3.763535553e-24
6.09488665823e-24
1.56035670115e-23
2.5839179037e-23
7.73978744632e-23
2.00128356465e-22
5.40971176588e-22
9.68691535443e-22
1.99494668056e-21
2.76017301274e-21
3.25261219863e-21
3.3566782188e-21
3.12737876405e-21
2.24335324692e-21
1.23677459969e-21
6.26714229221e-22
3.560428099e-22
2.41240415538e-22
1.70006461051e-121
2.10014946296e-119
5.54317847699e-118
1.90030799658e-116
2.42514947619e-115
6.54772175976e-114
9.76614126522e-113
1.30151760073e-111
1.28986965897e-110
2.00572449588e-109
2.18045335977e-108
2.53640185136e-107
3.56343602574e-106
2.63970292234e-105
3.44989825023e-104
2.44616726133e-103
1.47207170073e-102
2.54008755139e-101
2.25929651948e-100
1.05416678272e-98
6.67168353082e-97
1.79578813746e-95
1.00242735759e-93
3.21658427803e-92
6.06209118831e-91
2.11087707465e-89
3.52781798188e-88
3.28684207173e-87
8.2051774678e-86
3.86907108667e-84
3.39220797812e-83
1.12824193406e-81
1.35727509387e-80
1.39730801269e-79
1.09426778259e-78
2.92794047274e-77
2.30469619972e-76
2.77590545877e-75
7.22637942491e-74
4.91651208893e-72
1.4849174561e-70
3.04493535332e-69
2.56794162792e-68
2.07694375268e-67
4.05969888123e-66
7.14032951262e-65
1.82682712293e-64
4.24871873069e-63
2.02496912522e-62
9.23841643371e-62
4.08199564823e-61
1.84389506216e-60
2.84997205931e-59
2.74408663524e-58
1.74149616341e-57
1.53413301983e-56
4.30952078272e-56
2.42479469046e-55
1.20028821321e-54
6.96533594783e-54
2.91708228874e-53
7.19041370554e-53
3.14475585257e-52
7.36822167025e-52
2.15736854535e-51
5.22273423091e-51
1.66573729682e-50
5.4010562478e-50
1.23929534719e-49
2.54918995753e-49
6.73265137084e-49
9.6925440955e-49
1.46919529648e-48
1.80180540904e-48
1.86761190182e-48
1.80687263598e-48
1.44200078391e-48
9.85467544272e-49
7.20335021149e-49
3.7945318706e-49
2.18244296025e-49
1.32933804533e-49
9.6999276882e-50
1.477933117e-49
7.01744426465e-49
2.15636806116e-47
3.31018381428e-46
1.64524480528e-45
2.34758628879e-44
1.23355467893e-43
1.36417316441e-42
1.25820333163e-41
5.55435563652e-41
3.01504818487e-40
1.05605321249e-39
5.34982682468e-39
1.80517815768e-38
5.21024069804e-38
4.48620429553e-37
1.17868501978e-36
3.20769510778e-36
1.03869377886e-35
2.69026314085e-35
6.26508019274e-35
1.58627675128e-34
3.27205938994e-34
1.02370714185e-33
1.69820146213e-33
2.12034160738e-33
2.57341297433e-33
2.33891428417e-33
2.28299951327e-33
1.6529900607e-33
1.03612504838e-33
5.73001222326e-34
2.73846829746e-34
1.26379452798e-34
5.66387321343e-35
2.63262002046e-35
3.65407984685e-35
1.13225130093e-34
4.37964643701e-34
1.99199795803e-33
5.03815188184e-33
1.44367640734e-32
8.98903541915e-32
1.91073797695e-31
5.16947348754e-31
1.45043845754e-30
4.23699999328e-30
1.19639292235e-29
2.55671991867e-29
4.92175694849e-29
7.5230680057e-29
9.57774559083e-29
9.85383206924e-29
9.5227271465e-29
9.26686759286e-29
6.4568120472e-29
3.39018850431e-29
2.09246013532e-29
1.30388741513e-29
1.08760857673e-29
3.05791786602e-29
6.45170184511e-29
3.36277068877e-28
1.94892674019e-27
8.66648455201e-27
1.73471915019e-26
5.38613516613e-26
4.19139845174e-25
2.93474548325e-24
6.82231678946e-24
1.65415483254e-23
2.32774739221e-23
2.38047405286e-23
2.20806874762e-23
1.54267931643e-23
6.02046262177e-24
2.36089144468e-24
1.08080633835e-24
4.75856048075e-25
1.37030639378e-25
5.77943562596e-26
5.38581513997e-26
1.04279019659e-25
3.99921217867e-25
1.29689420068e-24
3.12866215507e-24
3.96832132113e-24
9.72215108393e-24
1.54820567475e-23
3.94376391081e-23
6.95579688505e-23
1.74348628643e-22
3.3655358295e-22
1.00224717176e-21
3.3792019023e-21
5.80466628647e-21
1.20445024728e-20
3.37049106625e-20
4.84245495287e-20
5.51052767917e-20
5.69301348732e-20
5.26123283218e-20
3.8212847981e-20
1.7913836963e-20
8.42222498802e-21
5.46454466191e-21
3.4446501689e-21
4.08485199804e-118
4.39900145835e-116
1.37708705729e-114
3.98771175535e-113
6.83851671638e-112
9.99875066334e-111
1.90066844332e-109
2.48928614425e-108
3.72124634799e-107
3.57459526787e-106
4.86528266439e-105
4.29919924882e-104
7.58085009627e-103
6.63828987489e-102
6.71511308894e-101
4.37159351529e-100
2.19430883519e-99
2.48414238182e-98
1.93622218023e-97
1.02567956379e-96
1.85419481574e-95
4.15188433208e-94
1.06754466154e-92
2.81100274174e-91
8.97501030424e-90
1.79582285787e-88
3.39226002405e-87
7.13570998343e-86
2.16210015944e-84
8.73390510982e-83
2.04614822079e-81
2.46114204725e-80
4.04224013008e-79
4.9805614458e-78
5.93764387801e-77
4.83037305351e-76
6.84265819188e-75
1.08680056317e-73
1.77425740827e-72
1.45276427001e-71
3.727294349e-70
2.66121338869e-69
3.83522644007e-68
1.83314460786e-66
7.92110999915e-66
1.22973004968e-64
1.37086808013e-63
1.03225879633e-62
1.10428601573e-61
1.00033326879e-60
1.40213423495e-59
1.16174249386e-58
7.45212971834e-58
8.77970361761e-57
4.13322108491e-56
1.95142255818e-55
9.29428371546e-55
3.69134358587e-54
2.03872701295e-53
1.0748229054e-52
3.57384816973e-52
1.15432008263e-51
4.40498296554e-51
1.58482034601e-50
4.38336194954e-50
1.45357825716e-49
3.97289222517e-49
1.14190131419e-48
2.45858255417e-48
6.08848050254e-48
1.38307558252e-47
2.43305054165e-47
3.44332545776e-47
4.43042991915e-47
4.70923716991e-47
4.47191771498e-47
3.63150391671e-47
2.54730038892e-47
1.67827736604e-47
1.00823233579e-47
5.43549543966e-48
3.31513196485e-48
2.12825447362e-48
3.16512715107e-48
9.56003722498e-48
6.33719537207e-47
1.85380787953e-45
4.67831318865e-44
4.74608829667e-43
5.8812508438e-42
3.200790134e-41
1.51819622721e-40
7.59888017074e-40
2.05602531504e-39
1.78076151649e-38
8.2867716245e-38
2.17966324439e-37
1.56070685653e-36
6.85195208757e-36
2.0193263061e-35
4.01040831612e-35
1.0835418028e-34
4.07817739956e-34
9.67355984217e-34
2.40553567407e-33
5.4841541275e-33
1.23379228807e-32
2.23823781368e-32
2.92183868209e-32
3.30763771131e-32
3.3545232801e-32
3.079136446e-32
2.5397545847e-32
1.87346452369e-32
1.09055428555e-32
4.36331597978e-33
2.00878755342e-33
8.72943801998e-34
3.90356173036e-34
3.39281422628e-34
8.61569650954e-34
3.99808026513e-33
1.87017987232e-32
8.01066634936e-32
1.46957568753e-31
3.66842628594e-31
1.69072707581e-30
5.44423844055e-30
1.19399382035e-29
3.88251913111e-29
1.15575745149e-28
2.37311673174e-28
4.41607058333e-28
7.19257937537e-28
1.02030846971e-27
1.10973863318e-27
1.05998016613e-27
8.37761684432e-28
5.94588905223e-28
3.49063549456e-28
2.11798401468e-28
1.25882560913e-28
1.02692671124e-28
1.98700518181e-28
4.22014395279e-28
8.90050589265e-28
2.70677251785e-27
1.20196397127e-26
7.08699901536e-26
5.35319563702e-25
5.65438352909e-24
3.97425162654e-23
8.20381945709e-23
1.95096732921e-22
2.74098352377e-22
2.57229957573e-22
2.20671549472e-22
1.54071687627e-22
9.06420247575e-23
3.98445634167e-23
1.94516027353e-23
7.86488424603e-24
2.5657074584e-24
9.81875205079e-25
8.57515792511e-25
1.37199339996e-24
5.58737478167e-24
1.35780491987e-23
3.13504438314e-23
4.62688754302e-23
1.12327724901e-22
2.23718878123e-22
4.10564729572e-22
1.07627157637e-21
1.67592883985e-21
3.05607349764e-21
8.61349290463e-21
3.51945852006e-20
8.10937846331e-20
1.45703976418e-19
3.07959600842e-19
4.35587658104e-19
4.88254625515e-19
5.1442371375e-19
4.94925645873e-19
3.78274484548e-19
2.15801672891e-19
1.11082460813e-19
5.54543826255e-20
3.41121694209e-20
1.07656320714e-114
9.48956691294e-113
3.00835178971e-111
8.84910546366e-110
1.71777256316e-108
2.13193360615e-107
3.68245780721e-106
3.81361697929e-105
7.78252044176e-104
6.63337710499e-103
8.21068061452e-102
1.08388972725e-100
1.24614438159e-99
1.3223964913e-98
1.07301847249e-97
6.63786881346e-97
3.08626697216e-96
4.33529718725e-95
3.30639550308e-94
1.42558974691e-93
8.58554430252e-93
3.41845556285e-92
2.42898996837e-91
2.14122586281e-90
3.10104290725e-89
5.10580691754e-88
7.86904549078e-87
1.42903707282e-85
2.31934174006e-84
7.80136548819e-83
1.21269980363e-81
3.02896972763e-80
6.09806081795e-79
2.54940363381e-77
3.39857735182e-76
8.4754167525e-75
1.30523551003e-73
3.60906332024e-72
8.51594556821e-71
6.24681689304e-70
3.24343158162e-69
4.00080837764e-68
1.00069992872e-66
1.67050264418e-65
3.7854802428e-64
2.41662124284e-63
3.20381971045e-62
4.07532588306e-61
3.58583155525e-60
1.9973161392e-59
1.24555906769e-58
7.44251348062e-58
6.6665418936e-57
7.35692967776e-56
4.6792785046e-55
2.24659608757e-54
8.01031890422e-54
2.23961994772e-53
3.19947051406e-52
8.38192374914e-52
4.04431609992e-51
2.20019413753e-50
5.4707992896e-50
1.60963338112e-49
5.47651620487e-49
3.07051177973e-48
6.64747981452e-48
1.68236768782e-47
4.73470735057e-47
1.6895446507e-46
2.84237660531e-46
4.70241960566e-46
7.07178796063e-46
9.20835438869e-46
9.05599992593e-46
8.28948744764e-46
6.65378183137e-46
5.33252360053e-46
4.18425574178e-46
2.33379434225e-46
1.48375477837e-46
8.50631172371e-47
5.60721674462e-47
6.19752931416e-47
2.82501878057e-46
1.42908949913e-45
1.29225623359e-44
2.77624599159e-43
1.89873308963e-42
2.31587105717e-41
1.1445882827e-40
9.09805081131e-40
4.70254133644e-39
4.55336590918e-38
3.47608742042e-37
1.22985317717e-36
5.07509909661e-36
1.19732891657e-35
5.46058936588e-35
2.01449224963e-34
4.05246925322e-34
1.48559655993e-33
5.67094987077e-33
1.22248153811e-32
3.12677279695e-32
7.42147971578e-32
1.47399590951e-31
2.69045213502e-31
3.05933251093e-31
3.38855723245e-31
3.45878790243e-31
3.53872571358e-31
3.36442603294e-31
2.451896229e-31
1.26718036633e-31
5.87308108432e-32
2.58853686023e-32
1.09651968882e-32
4.3677955213e-33
2.70027502281e-33
3.94754008456e-33
2.0684094067e-32
1.07317317485e-31
3.39173468177e-31
9.11725821568e-31
4.07739698455e-30
1.1379159233e-29
5.13401954797e-29
1.22666788612e-28
4.06194461371e-28
1.10694178878e-27
1.9740369844e-27
4.73177649671e-27
9.75875749214e-27
1.33073380931e-26
1.43479611369e-26
1.35746367861e-26
1.10643211942e-26
6.31770666481e-27
3.59824232364e-27
2.01253470787e-27
1.1139465886e-27
7.99983216546e-28
1.84894719613e-27
3.56655291953e-27
1.26082897727e-26
7.56595550615e-26
2.67777224546e-25
1.15282553725e-24
6.34966108367e-24
1.0032753979e-22
4.479107761e-22
1.28060043003e-21
2.62587630952e-21
4.54654510692e-21
4.92699465108e-21
3.9968656859e-21
2.58473828998e-21
1.02184748997e-21
5.00761014136e-22
2.13445060401e-22
8.18118578234e-23
2.09954032027e-23
1.03067574693e-23
1.08187996834e-23
1.44595208504e-23
2.9199195621e-23
1.45386773478e-22
4.25254731087e-22
5.9887829341e-22
1.10149760638e-21
3.04051492174e-21
5.74401044905e-21
1.44438157869e-20
2.67826512908e-20
4.90889030399e-20
1.15419022613e-19
4.05824352657e-19
1.11182239716e-18
1.44643477402e-18
2.66058958016e-18
3.50712167152e-18
3.71763397724e-18
3.90979761151e-18
3.91857828498e-18
3.53531398776e-18
1.96785099962e-18
8.85868042314e-19
4.55480371556e-19
2.97169755164e-19
4.09448479105e-111
2.21625001289e-109
6.60796838187e-108
1.62508467506e-106
3.32621648888e-105
3.77478418926e-104
6.8371009294e-103
6.78129972839e-102
1.51970171495e-100
1.07050216253e-99
1.28935049822e-98
1.78995469222e-97
2.04452637734e-96
2.35106917162e-95
1.51422312276e-94
1.32958629338e-93
5.72488335584e-93
6.91322007251e-92
4.98784849055e-91
2.56622745061e-90
1.2340291098e-89
4.73981662864e-89
1.60328762711e-88
6.48809766924e-88
2.74140341639e-87
1.71843413283e-86
2.80084938534e-85
4.80829717613e-84
1.1322785258e-82
2.60282674335e-81
7.56570932815e-80
2.18841423819e-78
1.92174482767e-77
8.26942057373e-76
1.94960697251e-74
4.12585594338e-73
5.92434804592e-72
1.24108874528e-70
4.62026896948e-69
3.81058444565e-68
4.41165385821e-67
3.70419007023e-66
7.29987186115e-65
8.9523119566e-64
8.0275727349e-63
7.51196150578e-62
2.42688472484e-60
1.71595124006e-59
2.0073968323e-58
7.02238767987e-58
4.57622597563e-57
2.4236406766e-56
3.26069470848e-55
2.50883163265e-54
1.4026273156e-53
4.80209942532e-53
5.77925953518e-52
1.24926635194e-51
5.29469044211e-51
3.20720668545e-50
1.52311585793e-49
5.91573014586e-49
1.99483254311e-48
5.18317760484e-48
1.12252852489e-47
3.21996997007e-47
1.19373371716e-46
4.14162098475e-46
1.22617640443e-45
3.3515923134e-45
5.89735745345e-45
8.97958602873e-45
1.58273775585e-44
1.99692030102e-44
2.22257706983e-44
2.11971216361e-44
1.64490411599e-44
1.26503965546e-44
8.57697868119e-45
5.62407467288e-45
3.39125009247e-45
1.87574710521e-45
1.2047114516e-45
1.40363842957e-45
5.38957572386e-45
2.92358336411e-44
3.37818516613e-43
2.6045158028e-42
3.30769940774e-41
5.88800505729e-40
3.9918726922e-39
1.79896501373e-38
1.04712810184e-37
9.99590420602e-37
3.94947766908e-36
1.66763449242e-35
3.81585113948e-35
1.9424910988e-34
4.91767072932e-34
1.76158459158e-33
6.35161526497e-33
1.88195646902e-32
5.12069912379e-32
1.4476692187e-31
3.27287864436e-31
8.05502499212e-31
1.65914709644e-30
3.18846649782e-30
4.77268530935e-30
5.65325741577e-30
6.30264607382e-30
5.88504754929e-30
4.50407624503e-30
2.975847148e-30
1.47233087734e-30
7.49255453297e-31
3.2723634856e-31
1.46091634664e-31
6.63963071969e-32
4.36677950774e-32
1.41400934205e-31
2.71613175647e-31
6.10458677192e-31
2.34121123966e-30
1.16991541785e-29
4.74649639229e-29
1.28246550083e-28
2.89813710844e-28
7.04239063686e-28
2.45398998912e-27
1.14595793582e-26
2.14736569169e-26
4.93185151676e-26
1.32506613729e-25
1.99944046773e-25
2.0596822946e-25
1.85537833411e-25
1.3972713623e-25
8.08520002894e-26
3.18048467239e-26
1.46412383998e-26
9.75293819182e-27
9.87934710944e-27
2.0957403936e-26
5.17405111015e-26
1.98998736027e-25
2.97335833761e-24
2.05164791616e-23
5.14442393787e-23
1.321761285e-22
6.76887018762e-22
6.84055258859e-21
1.67814337273e-20
4.11006298861e-20
6.73047928099e-20
7.02772213534e-20
6.38411958568e-20
4.76902996954e-20
1.84511362284e-20
6.97637565661e-21
2.95202115567e-21
8.62911897287e-22
3.51875825799e-22
1.42840940647e-22
8.69988066484e-23
1.19220288193e-22
2.92095247803e-22
1.078663098e-21
3.69063559302e-21
5.09082585628e-21
9.07285256839e-21
2.14888395242e-20
6.05324480924e-20
1.83993349714e-19
2.95352414123e-19
6.26729770139e-19
1.29090433094e-18
4.01149621593e-18
1.00397162367e-17
1.25297775838e-17
2.204061287e-17
3.32268797228e-17
3.65600933859e-17
3.71677446864e-17
3.33653251867e-17
2.65683851362e-17
1.594730197e-17
7.1317002748e-18
4.44432047011e-18
2.75210471629e-18
7.4635770619e-108
5.39618559475e-106
1.49246172303e-104
3.20113589391e-103
6.82123455725e-102
8.31527611882e-101
1.15514195305e-99
1.30053279688e-98
2.44677563808e-97
2.4224706666e-96
2.17032017455e-95
2.68680503857e-94
3.42430793006e-93
3.42765601708e-92
2.98600546033e-91
1.87604662001e-90
1.11485032551e-89
1.08078014405e-88
7.19562612669e-88
4.21588550465e-87
2.27074884981e-86
6.39106204404e-86
2.64851507099e-85
7.79511256529e-85
2.88937092809e-84
1.11148789631e-83
3.92445462574e-83
2.02717368984e-82
4.75921789928e-81
1.17817278003e-79
1.0507244338e-78
2.1052172101e-77
6.50290889229e-76
1.13889870688e-74
4.50848474189e-73
1.70088943771e-71
3.61969717882e-70
8.12931635841e-69
7.60504366176e-68
6.64639873353e-67
4.73397870579e-66
7.79950590314e-65
1.09348966224e-63
1.80085064409e-62
2.73865395473e-61
1.19796868978e-60
7.70174583388e-60
5.19267069844e-59
3.89836531294e-58
2.06204620855e-57
3.11412053452e-56
1.74512648565e-55
1.7297788228e-54
1.66724528537e-53
6.55825592536e-53
3.68776539759e-52
1.53998938471e-51
1.08815750568e-50
6.45479536597e-50
5.54683731597e-49
2.4377587056e-48
8.78964618297e-48
3.1207185105e-47
7.03145727502e-47
1.70833211631e-46
8.42475750207e-46
3.65696776215e-45
7.57318379679e-45
3.06362263725e-44
5.71526205541e-44
1.2803860296e-43
1.88438492538e-43
2.82844273965e-43
4.0590121105e-43
4.5824251546e-43
4.17327576811e-43
3.84208192613e-43
2.81127209927e-43
1.90395242216e-43
1.13422375366e-43
6.28094098427e-44
3.60758557974e-44
2.14552115516e-44
1.71270516983e-44
6.49461771499e-44
5.39733943892e-43
6.98775473804e-42
2.61670052503e-40
1.65289739721e-39
9.74381752817e-39
5.83921829236e-38
3.87950240271e-37
4.1517874259e-36
2.65291215047e-35
8.43935574269e-35
4.97736148129e-34
1.17727365614e-33
3.4967422735e-33
1.06957196662e-32
4.42436136667e-32
1.17195093119e-31
2.9064765968e-31
7.83357135583e-31
1.55901900156e-30
3.87562038903e-30
9.32484897434e-30
1.5525534072e-29
3.46485224131e-29
7.26247553376e-29
8.66980270107e-29