/*--------------------------------*- C++ -*----------------------------------*\
  =========                 |
  \\      /  F ield         | OpenFOAM: The Open Source CFD Toolbox
   \\    /   O peration     | Website:  https://openfoam.org
    \\  /    A nd           | Version:  8
     \\/     M anipulation  |
\*---------------------------------------------------------------------------*/
FoamFile
{
    version     2.0;
    format      ascii;
    class       volScalarField;
    location    "0.000664";
    object      p;
}
// * * * * * * * * * * * * * * * * * * * * * * * * * * * * * * * * * * * * * //

dimensions      [1 -1 -2 0 0 0 0];

internalField   nonuniform List<scalar> 
22800
(
101384.077521
101386.581498
101386.989859
101390.500959
101393.120744
101395.722764
101397.736356
101398.923095
101400.186013
101402.536359
101405.662886
101409.124295
101411.400107
101414.373225
101416.564824
101417.239842
101417.157575
101417.398526
101417.866919
101417.849853
101416.353034
101414.500405
101412.435053
101409.271392
101405.359539
101401.048603
101396.908336
101392.951928
101389.545346
101387.031492
101384.811791
101382.650689
101381.230774
101380.397098
101380.173398
101380.148999
101381.274126
101381.960577
101383.219048
101385.869713
101388.660702
101392.477571
101394.878073
101400.397704
101403.001435
101406.688265
101409.377221
101411.663804
101413.552121
101415.534139
101418.18866
101421.448054
101425.978665
101431.0097
101435.140964
101441.117759
101449.344477
101455.482919
101457.755301
101458.928066
101461.572495
101465.949897
101471.946493
101478.35274
101483.440323
101488.426518
101494.427865
101500.278665
101504.779937
101507.305305
101508.027018
101507.077031
101509.2911
101507.252721
101510.414497
101514.083961
101516.055575
101516.106956
101513.453982
101507.666914
101499.860684
101491.304078
101484.628663
101480.454063
101477.938418
101478.569816
101482.731714
101486.782821
101486.242384
101485.765053
101483.372962
101478.889968
101482.093724
101484.815572
101487.87132
101490.327277
101488.611145
101481.029932
101474.997438
101474.719452
101478.539197
101481.288843
101480.312197
101481.859851
101482.936088
101482.418893
101482.180857
101482.502484
101482.947482
101490.424172
101490.230032
101497.771879
101494.861471
101487.341626
101479.930197
101475.799301
101472.957134
101470.337925
101471.301745
101472.739131
101470.882779
101466.946007
101461.291594
101462.611401
101455.690335
101447.986301
101441.968302
101440.250784
101442.931616
101446.523811
101449.782247
101450.613078
101448.235212
101441.845763
101438.863811
101424.411698
101425.134119
101421.397364
101417.584811
101413.557564
101408.413031
101401.533023
101396.30203
101392.250851
101387.144125
101387.259673
101386.21466
101382.172991
101380.068709
101379.461761
101377.866798
101376.389946
101373.736889
101370.662995
101367.374135
101361.045315
101359.443346
101354.842735
101349.284677
101343.322827
101335.859282
101330.423275
101328.070162
101328.224199
101329.361539
101323.322911
101314.355878
101300.540878
101286.820292
101280.266114
101281.325707
101283.956808
101289.073338
101292.448899
101293.805
101293.314106
101291.539819
101288.60506
101287.983943
101290.001495
101293.089392
101296.678996
101300.409139
101303.707733
101307.23938
101310.027275
101313.050952
101316.544078
101321.387243
101320.857003
101428.135774
101432.096261
101433.297489
101436.365517
101438.55311
101441.394224
101444.959998
101449.558533
101454.884369
101460.5529
101466.980682
101473.58164
101479.91306
101487.095642
101493.881062
101498.427699
101501.59691
101505.069136
101508.717041
101511.85489
101513.172162
101513.43369
101513.598135
101513.798808
101513.713571
101512.902296
101512.154197
101511.986421
101513.201089
101516.044914
101519.65449
101523.335424
101527.468696
101531.940451
101537.036383
101542.427025
101549.116875
101555.478011
101562.690289
101571.464423
101580.638353
101590.411311
101597.854495
101608.789109
101615.65711
101622.474405
101627.636216
101631.237448
101633.675368
101635.54915
101637.380855
101639.774195
101643.140571
101646.26825
101647.557821
101650.229255
101657.063078
101663.24137
101666.303651
101668.750863
101672.509447
101678.483926
101683.664401
101690.112677
101696.555626
101702.254545
101708.427239
101714.91316
101720.890291
101725.278625
101728.240121
101729.695945
101732.945561
101735.470962
101738.050441
101736.343517
101736.631406
101737.906119
101739.335675
101739.185186
101736.817793
101733.053204
101729.742408
101727.142348
101724.834124
101723.308483
101723.510734
101725.537768
101729.231962
101735.585357
101739.35683
101739.447343
101746.214401
101753.942661
101762.55222
101771.38443
101776.191687
101773.138995
101765.821715
101761.894382
101764.341531
101770.282055
101771.170967
101769.282123
101765.255449
101759.929309
101756.377491
101755.589318
101756.447515
101763.486614
101759.563407
101762.740983
101754.852225
101745.712065
101739.638644
101739.724546
101742.931153
101741.126176
101737.496158
101732.410936
101724.743804
101718.355022
101711.052335
101711.901295
101702.904326
101692.634522
101683.699621
101680.289034
101682.457482
101684.795363
101684.842476
101679.596304
101669.589453
101654.473781
101642.832222
101618.027053
101610.280139
101598.145733
101587.720078
101579.407015
101570.824861
101558.518269
101546.925147
101536.45662
101524.072856
101520.026574
101510.836053
101500.046252
101493.440684
101489.095647
101481.064539
101472.489887
101460.307522
101445.323384
101427.811498
101413.349969
101401.080578
101387.532559
101373.95482
101360.444673
101344.077428
101332.347677
101326.943348
101326.93796
101326.377622
101316.927406
101305.272922
101283.509381
101263.696674
101256.042844
101259.011523
101263.155642
101267.768767
101268.506075
101265.49208
101258.853474
101250.106298
101242.822861
101242.324964
101249.355088
101257.958673
101266.139027
101273.56353
101280.19846
101287.008725
101292.652123
101299.043492
101305.822314
101314.317888
101313.750313
101495.421516
101501.282772
101505.396734
101511.431024
101517.757652
101524.631122
101532.506055
101541.64778
101551.017391
101560.364023
101570.356638
101579.233465
101586.982389
101595.672374
101604.337699
101610.049396
101613.645755
101617.93835
101623.031954
101627.441749
101629.589161
101629.924272
101630.169809
101630.782017
101631.720432
101631.902462
101631.901271
101632.752522
101635.073686
101639.536932
101645.326497
101651.665839
101658.983865
101667.291081
101676.776681
101686.540885
101697.402421
101708.145936
101720.043393
101732.717238
101745.377388
101758.272156
101767.651978
101780.182528
101789.302917
101798.425891
101806.31782
101812.896222
101819.330675
101826.264215
101833.857985
101841.659947
101849.429082
101856.216248
101859.260798
101862.734745
101871.664416
101880.3021
101885.006848
101889.161638
101895.019611
101903.197135
101909.893981
101916.934731
101924.422272
101931.791549
101941.718184
101952.707857
101963.323175
101970.529592
101975.10346
101978.219511
101985.252845
101989.984369
101994.827933
101995.757078
101996.150192
101997.127392
101999.818901
102002.883398
102004.477288
102003.5089
102000.942833
101997.607489
101993.856691
101990.966987
101989.880078
101990.734353
101993.171456
102000.67408
102006.735098
102009.563771
102019.027526
102030.257816
102041.161068
102051.425579
102058.377107
102059.397973
102053.003922
102045.702296
102042.389934
102046.044799
102048.2802
102045.314057
102039.384816
102031.954962
102027.680945
102027.717278
102029.00982
102035.269621
102029.34734
102030.189924
102020.295535
102012.981514
102012.546482
102018.59312
102020.227852
102013.837696
102006.884599
101995.871198
101980.674747
101968.215845
101958.692383
101963.047119
101956.072292
101945.95688
101933.159793
101922.448036
101915.865251
101910.215707
101902.239473
101890.613492
101875.589302
101856.593224
101844.590023
101816.671122
101805.146911
101787.475213
101768.287231
101750.61413
101734.928667
101716.209422
101699.41367
101685.37656
101669.246353
101662.14931
101644.258605
101624.730509
101607.990213
101593.598695
101572.972795
101554.672752
101535.237683
101512.253993
101482.214383
101464.300423
101444.30204
101424.111703
101403.662546
101384.054332
101359.336928
101339.801262
101326.49763
101320.215033
101315.615694
101301.167127
101284.155267
101255.123222
101231.239804
101221.025794
101222.054352
101222.773104
101223.212222
101218.560198
101210.032402
101200.792799
101194.570619
101192.858336
101197.465734
101206.568814
101215.967074
101225.316117
101234.719779
101244.298548
101254.661013
101264.303151
101275.415889
101288.769077
101304.952109
101304.881276
101568.797432
101577.45684
101584.173982
101591.954533
101600.093961
101608.238842
101617.234305
101626.941179
101636.60441
101646.792553
101658.112117
101668.146031
101676.881844
101687.383251
101698.810725
101706.481433
101711.145226
101716.851115
101723.869807
101729.558122
101732.412023
101733.503135
101734.607927
101735.939947
101738.252866
101740.096382
101741.72112
101744.422459
101748.468725
101755.186383
101763.925796
101773.928626
101785.259104
101797.377958
101810.616973
101824.464294
101839.416571
101854.21527
101870.259613
101886.672577
101901.537024
101916.621394
101928.053147
101939.627477
101947.563914
101956.111277
101964.295351
101972.01296
101981.081606
101992.063278
102005.003965
102018.469203
102032.514811
102046.83213
102055.863811
102062.427774
102073.674642
102085.459261
102092.504417
102099.322027
102108.532135
102118.717009
102125.775499
102134.266693
102144.463244
102155.351037
102169.226537
102183.342282
102194.60445
102201.226707
102206.153852
102209.07826
102216.53308
102224.317679
102232.740579
102237.84284
102240.598335
102240.407553
102239.725752
102241.289026
102245.288068
102247.802254
102248.494173
102248.04838
102245.285714
102242.594028
102240.702779
102240.671738
102242.058289
102249.636743
102256.960632
102260.551469
102271.500732
102282.374614
102290.789675
102299.435481
102307.227408
102313.546574
102313.016219
102304.750416
102297.69699
102301.544766
102306.370666
102302.790149
102296.269338
102287.96962
102283.000502
102282.612579
102283.19998
102291.029984
102281.21916
102279.712648
102267.753187
102261.015347
102262.700794
102270.201148
102273.031183
102267.104713
102254.743392
102234.798944
102213.314976
102198.670223
102188.468011
102192.628293
102186.1928
102176.502933
102161.128319
102143.940739
102128.817377
102112.488754
102089.639456
102068.319048
102048.496635
102031.275822
102027.395579
102003.302014
101991.835238
101969.003995
101938.593295
101907.516548
101881.257078
101856.421889
101837.688934
101823.301971
101805.043814
101793.40906
101766.488575
101737.025895
101709.733744
101685.67496
101655.749874
101629.483235
101602.922358
101573.17131
101534.802379
101510.553923
101485.533128
101461.914496
101438.31567
101414.031717
101381.453374
101352.800081
101328.219404
101311.063247
101296.682369
101274.465259
101252.688263
101224.712735
101203.843896
101190.749343
101185.531428
101177.644026
101170.826658
101161.858821
101154.994478
101150.117149
101150.628293
101155.825579
101164.767198
101174.315655
101183.161542
101191.147855
101200.441902
101211.625576
101224.370406
101237.270342
101252.894585
101271.995166
101295.237385
101296.525511
101635.159095
101647.156944
101655.43983
101665.082658
101674.131735
101683.16291
101692.200034
101701.762416
101711.611697
101722.45023
101734.150024
101744.367145
101754.240578
101767.598188
101782.010616
101792.054719
101800.368484
101811.363124
101822.985757
101831.34032
101837.046913
101842.757166
101847.981367
101852.170114
101857.483458
101863.003795
101868.670588
101875.151439
101882.576721
101892.003977
101903.095757
101914.503413
101925.695066
101936.607721
101949.042897
101963.637759
101979.980687
101995.813128
102012.871672
102030.428949
102045.66427
102061.460414
102075.133774
102087.668005
102096.521387
102106.969098
102117.159321
102127.29739
102138.676285
102152.337425
102168.233242
102184.562225
102202.386095
102222.60466
102239.285525
102252.436909
102267.737013
102282.266507
102291.939993
102301.282464
102313.947543
102328.502916
102338.045594
102349.017436
102362.511966
102376.202413
102390.635754
102403.416202
102413.7582
102421.205867
102426.755978
102429.621714
102436.908583
102447.258207
102458.937328
102467.229957
102473.21708
102473.051448
102467.007132
102462.113521
102464.950442
102471.498029
102478.802029
102485.612138
102487.82274
102487.807335
102486.233452
102485.732466
102486.585175
102492.631196
102499.768351
102501.111521
102509.546524
102514.850407
102516.762687
102520.399735
102526.609415
102537.434292
102548.474114
102551.595432
102547.290468
102547.239978
102549.274996
102546.174358
102541.920807
102536.633732
102533.835421
102535.043113
102535.454147
102539.284222
102524.293936
102517.313224
102503.895293
102497.902036
102498.649278
102503.574602
102503.102906
102494.090922
102477.621156
102455.036915
102432.009001
102415.908754
102403.636092
102405.912079
102399.587515
102389.985326
102373.526951
102350.793585
102327.035658
102300.680321
102268.259572
102242.401936
102223.215729
102211.128094
102213.793819
102193.320665
102182.429745
102153.549866
102109.549509
102059.68612
102018.988742
101985.699072
101965.195952
101951.151658
101929.814668
101910.51789
101874.144659
101832.851565
101794.743783
101762.693512
101727.187953
101697.619425
101667.908175
101634.532807
101593.587893
101562.032469
101531.989915
101502.575383
101472.822364
101442.930048
101404.501472
101368.507888
101333.558909
101301.100944
101272.922068
101241.983432
101216.322451
101191.138082
101176.010275
101161.721927
101147.449067
101124.970734
101108.897634
101101.258603
101102.706146
101105.013972
101111.478839
101121.532031
101133.637108
101143.23719
101151.164315
101158.616841
101169.360813
101182.222195
101196.899785
101212.46958
101231.875299
101256.258218
101286.457001
101290.021495
101691.037597
101706.128435
101716.263299
101726.817951
101736.796701
101747.287591
101757.253911
101767.414567
101777.858911
101789.096961
101800.66875
101811.294273
101823.242859
101838.6542
101852.582082
101863.366428
101876.064277
101891.237594
101904.118849
101913.389769
101922.739757
101934.047768
101944.183226
101953.399218
101964.175474
101975.207624
101986.559614
101997.688268
102009.25737
102021.216773
102033.882609
102045.984857
102057.714956
102069.465863
102084.244656
102100.953918
102119.21499
102136.507821
102154.029881
102171.345182
102186.318345
102202.408838
102218.309322
102232.409009
102245.308662
102259.881652
102273.889958
102287.224752
102300.073535
102313.675919
102327.852698
102341.94231
102358.193341
102378.133565
102397.590508
102415.401607
102434.404621
102449.507179
102460.830208
102471.11702
102486.218103
102506.178674
102523.327144
102541.79784
102561.179265
102577.418662
102590.548525
102601.315408
102611.936281
102622.68999
102634.020687
102644.715612
102651.136099
102658.390795
102667.104062
102674.343325
102682.000336
102686.443811
102684.130399
102677.532633
102677.418909
102686.237005
102698.424706
102710.864199
102719.165737
102723.589937
102722.953498
102720.536899
102718.380912
102719.269547
102723.406991
102722.953329
102727.980422
102731.189
102732.325832
102733.696005
102738.985213
102749.848618
102764.294169
102775.189543
102775.652373
102773.184179
102769.537645
102764.165454
102761.864311
102760.309007
102761.362528
102764.878608
102765.572539
102768.50091
102750.276022
102742.598011
102729.154171
102720.629314
102716.898881
102716.952176
102713.214983
102701.764031
102683.381526
102659.991488
102636.704377
102621.188788
102608.595223
102609.818919
102599.270597
102584.992201
102565.400426
102539.073597
102509.819396
102479.50986
102447.617806
102424.810595
102407.795553
102395.299648
102393.890113
102367.362849
102352.351293
102316.113125
102264.521458
102204.847682
102152.62469
102109.97567
102084.831161
102067.238069
102038.092944
102008.877783
101963.178189
101914.491649
101870.821908
101835.021874
101796.950186
101765.602939
101735.041803
101700.49133
101658.184702
101620.865086
101587.292959
101551.48879
101511.501692
101473.161797
101425.591801
101378.779554
101333.215154
101289.591867
101252.83854
101214.653612
101185.314229
101161.61831
101149.032951
101131.588611
101106.709883
101072.903825
101055.300859
101051.668476
101059.726435
101068.52228
101079.342753
101091.118422
101104.007947
101113.581413
101121.737788
101130.271063
101143.610648
101158.059438
101174.847594
101193.096936
101215.380199
101243.745407
101279.43677
101285.817115
101742.92143
101760.438425
101772.419338
101784.80258
101796.797811
101808.982652
101820.60679
101832.252442
101844.065606
101856.196001
101867.944553
101879.074254
101891.840389
101906.469547
101918.683355
101929.95126
101945.072262
101960.710741
101971.766489
101982.90204
101997.36419
102012.491027
102026.107526
102040.539844
102056.331865
102072.662548
102089.261927
102105.401663
102120.34356
102134.404779
102148.53452
102162.489954
102177.670854
102192.612373
102210.196127
102228.650231
102248.12889
102266.524785
102283.726149
102299.257515
102312.660051
102327.35698
102343.301488
102357.611935
102372.8897
102390.67275
102408.202447
102424.75265
102440.642987
102456.028543
102470.449784
102484.689714
102500.964733
102520.089593
102539.4791
102559.754888
102580.196662
102597.032818
102614.466514
102630.490699
102649.736135
102674.160369
102698.574552
102725.328237
102748.533036
102763.798062
102772.821707
102778.88252
102787.797157
102802.942175
102823.448316
102844.716515
102857.132987
102861.312544
102860.776202
102859.470178
102862.535728
102872.265878
102883.345618
102887.885454
102890.631607
102898.889287
102908.897371
102919.804882
102930.510206
102937.988038
102938.660765
102934.025458
102926.927824
102921.462493
102921.587638
102921.087125
102926.515497
102931.115348
102934.521366
102937.809078
102942.888992
102948.751314
102960.299982
102975.784036
102983.023305
102981.548744
102973.058043
102965.539322
102967.005581
102968.944043
102970.74977
102972.338026
102969.590188
102970.592125
102952.754032
102946.729831
102938.019292
102931.439487
102922.925227
102915.797583
102909.898255
102899.666154
102886.725396
102868.101074
102847.03662
102831.33379
102812.872035
102805.829975
102787.953819
102764.244732
102736.8656
102705.895735
102674.10495
102646.244018
102622.341031
102609.276618
102594.839191
102572.497334
102549.999016
102502.235807
102472.95393
102427.818438
102378.348805
102326.024678
102278.222862
102232.081992
102199.847428
102173.937809
102133.083933
102094.768158
102041.094284
101989.800253
101945.024601
101908.660363
101869.360053
101835.503614
101801.506979
101762.419741
101715.517214
101672.232985
101632.395483
101587.753634
101537.510428
101490.175497
101436.382367
101387.088311
101338.825587
101289.402485
101245.660243
101200.001192
101166.199166
101139.933733
101124.131077
101099.523727
101066.601175
101031.963918
101015.84657
101014.392987
101024.389402
101035.320055
101047.650068
101058.946172
101070.49515
101080.466722
101090.560531
101102.285258
101119.742405
101136.59905
101155.790719
101176.577574
101201.455249
101233.465079
101273.922322
101283.243951
101797.583142
101817.51313
101831.925725
101846.809365
101861.36904
101876.663199
101890.470852
101903.830332
101916.479115
101928.652925
101939.836374
101950.5795
101962.255175
101973.785362
101983.386309
101994.375712
102009.205843
102021.560927
102030.217988
102043.541777
102060.834055
102076.725944
102091.99834
102110.027706
102129.805288
102150.112222
102170.416377
102189.049257
102206.269653
102223.18735
102240.359058
102258.584086
102278.172272
102297.077157
102316.146996
102334.635977
102353.532662
102371.7342
102389.931317
102406.582094
102422.110997
102440.256837
102460.249877
102477.76633
102496.181156
102515.638418
102533.521295
102550.322805
102567.402089
102584.669381
102602.419276
102622.425417
102644.766111
102669.282682
102691.476741
102711.814922
102728.581405
102742.123283
102759.58486
102781.182794
102806.502593
102830.177135
102852.200527
102879.086632
102903.273598
102921.251115
102935.864356
102946.405526
102956.104577
102971.091614
102993.176179
103018.525163
103037.220769
103043.044287
103039.64027
103031.890048
103029.033585
103039.284252
103060.276654
103078.322014
103088.532173
103095.446284
103097.898029
103101.353051
103110.251796
103119.529446
103124.770075
103123.854184
103116.57097
103108.141516
103104.643237
103104.192593
103114.081791
103126.392139
103140.06641
103150.107838
103152.634504
103150.339007
103153.233163
103165.920154
103174.985275
103173.531812
103161.572272
103152.40443
103153.915813
103155.063711
103156.507872
103158.692336
103156.6829
103160.107395
103147.85281
103146.105844
103140.484722
103133.081409
103117.081808
103099.428533
103089.100234
103080.380331
103077.91665
103071.366586
103057.310941
103039.889076
103012.845688
102995.188595
102969.123694
102940.278404
102908.763257
102874.257847
102840.621276
102813.280781
102791.896804
102780.321311
102762.076478
102727.602225
102686.608586
102620.132131
102573.19442
102514.940357
102465.855459
102423.657831
102388.302403
102346.012047
102308.084982
102271.779345
102218.320183
102172.99978
102114.442677
102063.076998
102020.339817
101986.10453
101946.831329
101906.628501
101862.284424
101812.911361
101758.775867
101710.706406
101663.122636
101611.20213
101553.005005
101499.159268
101441.532559
101390.138233
101341.047966
101291.037066
101244.149818
101194.557355
101157.335192
101125.289179
101101.505486
101070.572434
101034.529202
101001.752501
100988.233129
100987.4961
100996.005424
101004.907269
101014.826182
101023.386014
101032.499105
101044.006836
101057.868981
101074.987294
101097.132307
101117.024358
101139.178407
101162.752695
101189.933233
101225.132072
101269.395128
101281.891778
101863.751227
101887.260496
101904.786746
101922.462495
101938.282718
101952.952272
101966.019421
101978.769191
101990.455439
102001.509744
102011.801703
102022.128762
102032.417836
102041.075439
102048.862351
102059.464907
102071.929325
102080.863337
102089.941654
102105.159914
102121.658092
102136.113073
102151.646682
102171.135768
102192.276778
102214.247216
102236.543662
102257.989455
102278.715387
102300.094448
102321.762163
102344.265136
102367.039505
102388.88394
102409.346765
102427.843952
102446.736268
102465.603531
102485.815855
102505.551063
102525.306466
102547.532492
102571.787467
102594.483411
102617.235603
102638.984525
102658.196675
102675.29844
102691.552357
102708.897199
102728.764039
102749.061498
102771.213422
102795.866952
102820.728522
102847.795567
102870.627214
102885.00869
102902.5519
102927.557722
102953.902628
102971.827875
102986.186455
103004.66012
103024.551745
103046.476921
103073.617666
103098.727303
103117.548871
103131.814624
103147.838968
103169.15814
103189.634536
103202.691307
103205.396855
103199.092401
103195.342135
103201.079802
103219.11098
103239.962835
103254.240091
103261.443157
103260.785687
103260.021288
103265.943262
103276.556908
103289.047783
103297.645289
103297.72521
103291.319391
103285.872246
103284.294172
103296.819214
103314.674053
103333.036934
103343.422501
103345.304809
103340.890831
103338.982267
103346.822159
103353.018254
103348.987887
103332.529676
103323.228731
103324.876763
103325.746772
103329.00888
103333.713069
103334.570568
103341.378193
103335.385655
103337.170185
103332.44139
103323.526522
103302.998568
103276.696126
103257.66209
103245.282467
103244.949594
103243.51312
103234.76678
103216.881772
103182.797943
103157.180687
103127.875391
103100.292859
103072.753571
103042.115415
103009.447226
102978.917631
102948.068269
102923.446364
102894.691137
102853.697337
102808.09839
102732.743664
102671.744506
102602.244155
102547.693391
102510.63794
102484.924134
102446.304101
102403.484182
102358.929854
102296.842782
102248.568992
102189.118406
102139.067113
102097.925828
102062.931206
102018.196815
101964.055269
101906.243001
101847.968774
101789.661306
101738.962228
101685.642597
101628.352378
101564.437364
101505.874602
101444.142755
101389.92197
101339.977005
101292.711043
101243.216392
101194.783031
101155.858501
101115.880518
101079.810094
101041.466893
101005.871517
100976.583656
100967.55062
100967.515623
100972.68013
100977.012949
100981.747973
100985.871969
100993.864135
101008.448
101025.78148
101049.231374
101075.734638
101098.819242
101123.922512
101150.247481
101179.3828
101217.04108
101264.549801
101280.323389
101936.96351
101960.14678
101975.185345
101991.337534
102006.746615
102019.915571
102032.154831
102044.062811
102055.282717
102066.282549
102077.080753
102088.231897
102098.719216
102107.779623
102117.284118
102128.392772
102138.674585
102147.108615
102159.611577
102176.306848
102191.279995
102205.421991
102221.666606
102241.260704
102262.819216
102285.727577
102309.409601
102333.542463
102357.755855
102382.812325
102408.164126
102433.382647
102458.255929
102481.026063
102501.706302
102520.264163
102539.566905
102559.936934
102582.273132
102604.899467
102627.8849
102652.740117
102678.177025
102702.126108
102727.03549
102753.075998
102779.162148
102805.252618
102830.416044
102854.161089
102874.48524
102890.276305
102905.720091
102920.912569
102939.072037
102966.866986
102996.658323
103019.350854
103043.194387
103071.698569
103098.84967
103112.242092
103119.134888
103128.778977
103139.25215
103159.800372
103195.065118
103233.299197
103263.903159
103281.199576
103289.03419
103297.367227
103311.760472
103331.472841
103348.201376
103356.031747
103358.025008
103359.571045
103365.661682
103376.814876
103389.027023
103398.202333
103401.757663
103405.802759
103413.490202
103424.80366
103441.967121
103458.411988
103469.07031
103471.948502
103468.65666
103462.277315
103466.525235
103475.971051
103485.458717
103493.644799
103501.526438
103505.417277
103508.614872
103514.586736
103513.551313
103500.098088
103478.142988
103472.938397
103479.362657
103487.823189
103498.899696
103505.988644
103505.674472
103506.882971
103495.506674
103492.22359
103485.90095
103478.735432
103463.698079
103441.370308
103419.71506
103400.701104
103389.843189
103380.235096
103369.405943
103351.930704
103316.346582
103288.777629
103259.70797
103234.775057
103212.432935
103187.531108
103158.500443
103125.818194
103081.227536
103037.509807
102997.057081
102954.6522
102916.21318
102845.86418
102784.977545
102713.672777
102652.508699
102606.046493
102576.589921
102536.637738
102487.580386
102437.648437
102370.431722
102322.009869
102265.077868
102217.137334
102174.975685
102133.495011
102076.874476
102006.966041
101939.621106
101876.466511
101815.479291
101762.653706
101704.167513
101642.555727
101575.128194
101514.095538
101449.275501
101391.642412
101337.054217
101290.419498
101237.595771
101191.310013
101150.591866
101102.655319
101055.374338
101011.374511
100979.640824
100954.777182
100948.76107
100948.316697
100949.716172
100949.002144
100947.69777
100949.632337
100960.028034
100978.140554
100998.811094
101027.087394
101057.200926
101083.202396
101110.873609
101139.129186
101169.188438
101208.393607
101258.6947
101278.552149
101994.247033
102016.622769
102031.370397
102044.679492
102056.13879
102068.881235
102081.145862
102093.815639
102106.431593
102118.909846
102131.732986
102144.77148
102157.355704
102170.030905
102184.873476
102199.532018
102211.408758
102224.331124
102242.254588
102259.242137
102272.983438
102288.797866
102306.087487
102325.141858
102346.684899
102370.137795
102394.526435
102420.471746
102446.362734
102471.883365
102497.036417
102521.331064
102545.596735
102568.478321
102590.570848
102612.208077
102635.479972
102659.734553
102683.741503
102705.459095
102726.07663
102748.425175
102772.28179
102795.756656
102820.733236
102849.127539
102879.724932
102914.261998
102950.499092
102984.677032
103013.706903
103034.385872
103044.900142
103049.386063
103056.155578
103076.370288
103106.77924
103139.112849
103173.92488
103208.730274
103238.67679
103251.975201
103254.430345
103255.496284
103258.014487
103273.625537
103307.078236
103347.209498
103384.420041
103406.857819
103414.412167
103417.360355
103425.416156
103446.086452
103472.263028
103494.125504
103505.924628
103506.532592
103503.09207
103502.241735
103508.059844
103519.597305
103533.611491
103548.196527
103561.258521
103570.602892
103582.692967
103596.932898
103611.212995
103621.982622
103625.001795
103617.301194
103612.837639
103612.853539
103614.823566
103623.601105
103636.446272
103648.963443
103659.772846
103664.681294
103654.412598
103631.453534
103608.24928
103609.704992
103624.388275
103644.505738
103663.516378
103671.942049
103667.573387
103656.344618
103630.91855
103616.818263
103604.963962
103597.609143
103590.06961
103580.589329
103567.676567
103546.473889
103522.893545
103500.58109
103482.203401
103463.037725
103429.109557
103400.52213
103372.892092
103349.704333
103327.818167
103302.805281
103275.362419
103244.501725
103191.942091
103134.680716
103085.615967
103043.065253
103014.82662
102961.379558
102910.283943
102842.014132
102774.776422
102715.796899
102672.242358
102621.264331
102562.993979
102508.34434
102439.201992
102392.733101
102339.10335
102291.862512
102245.012813
102193.974165
102123.262474
102040.593113
101968.668658
101903.794002
101840.554524
101785.580941
101721.803082
101655.574341
101586.386208
101524.390684
101458.516713
101396.289365
101335.63003
101283.34808
101226.616427
101180.387631
101136.998651
101082.030989
101024.962517
100979.142378
100954.086875
100934.395685
100929.092138
100926.809664
100924.96197
100920.531957
100916.183653
100919.830405
100934.28603
100955.487904
100978.114899
101008.806829
101041.285357
101069.510586
101099.119029
101128.572814
101159.012694
101199.265914
101252.188936
101277.109833
102026.101629
102049.609615
102062.028961
102075.868835
102090.62645
102104.442364
102118.123365
102132.220561
102146.721758
102161.323255
102176.840782
102193.001088
102209.61291
102227.843279
102248.154697
102267.067221
102285.60868
102307.947445
102331.050635
102348.528524