/*--------------------------------*- C++ -*----------------------------------*\
  =========                 |
  \\      /  F ield         | OpenFOAM: The Open Source CFD Toolbox
   \\    /   O peration     | Website:  https://openfoam.org
    \\  /    A nd           | Version:  8
     \\/     M anipulation  |
\*---------------------------------------------------------------------------*/
FoamFile
{
    version     2.0;
    format      ascii;
    class       volScalarField;
    location    "0.000664";
    object      rho;
}
// * * * * * * * * * * * * * * * * * * * * * * * * * * * * * * * * * * * * * //

dimensions      [1 -3 0 0 0 0 0];

internalField   nonuniform List<scalar> 
22800
(
0.070234566614
0.0702331426663
0.0702293324803
0.07022550875
0.0702204877366
0.0702161739179
0.0702124208126
0.0702086932069
0.0702051900202
0.0702022465343
0.0701994786716
0.0701965256491
0.0701925697961
0.0701889328213
0.0701854987544
0.0701818570289
0.070178166858
0.0701747839157
0.0701715512489
0.0701681429101
0.0701642415423
0.0701606812629
0.0701577769901
0.0701550914611
0.0701525354056
0.0701501684686
0.070148397511
0.0701472995054
0.0701471245928
0.0701480298872
0.0701498979525
0.0701527304184
0.0701568876765
0.0701622700947
0.0701688472652
0.0701763718883
0.0701852114703
0.0701943267511
0.0702037465999
0.0702137000592
0.0702237761868
0.0702344386042
0.0702443917824
0.0702557465231
0.0702662292561
0.0702780334699
0.0702901259882
0.0703027894665
0.0703157390234
0.0703287282643
0.0703420336891
0.0703559317116
0.0703707482086
0.0703854969016
0.0703987614116
0.0704114728781
0.0704235335827
0.070432707875
0.0704382114358
0.0704416672352
0.0704447212211
0.0704478717525
0.0704508048135
0.0704518680807
0.0704500047427
0.0704457448791
0.0704391984519
0.0704290835759
0.070414055547
0.0703932786944
0.0703665246074
0.0703336534752
0.0702972140263
0.0702573016385
0.0702251776768
0.070199580047
0.0701793540284
0.0701639617353
0.0701523689838
0.0701434680545
0.0701364914123
0.0701309669404
0.0701281590325
0.0701284572832
0.0701315616486
0.0701389081313
0.0701509995232
0.0701658976528
0.0701810244127
0.0701984322992
0.0702162999862
0.070233331128
0.0702543711814
0.0702762397356
0.0702997214776
0.0703252192306
0.0703512717488
0.0703744639864
0.0703943288661
0.0704119332627
0.0704262456201
0.0704351715028
0.0704384939501
0.0704403665269
0.0704394839527
0.0704337068974
0.0704215316299
0.070400803743
0.0703691547751
0.0703280456031
0.0702717730137
0.0702205252985
0.0701788343519
0.0701483145282
0.0701287111474
0.0701185458614
0.0701139310593
0.0701125493608
0.0701166092215
0.0701266172293
0.0701425116811
0.0701662156743
0.0701984894834
0.0702423471871
0.0702829975337
0.070314272119
0.0703369053326
0.0703531141713
0.0703643325215
0.0703704092916
0.0703726675721
0.0703708696937
0.0703619152071
0.0703421735432
0.0703125819486
0.0702646559469
0.0702190779376
0.0701813557779
0.0701570639745
0.0701434264098
0.0701365985153
0.0701334758969
0.0701362497867
0.0701472238851
0.070168179012
0.0702032311153
0.0702433180746
0.0702737323621
0.070293332214
0.0703044021523
0.0703081526313
0.0703072778377
0.070301898939
0.0702892782371
0.0702668390101
0.0702329509124
0.070201031896
0.0701791554917
0.0701668151679
0.0701608851554
0.0701583990729
0.0701620125233
0.0701738438728
0.0701949580937
0.0702200740291
0.0702351163588
0.0702403197847
0.0702375395017
0.0702306548992
0.0702238521934
0.0702167415387
0.0702053233961
0.0701941369798
0.0701874523672
0.0701848222361
0.07018455143
0.07018601298
0.0701908813395
0.0702005055017
0.0702108876019
0.0702170797423
0.0702201972781
0.0702215756788
0.0702206204241
0.0702170223562
0.0702113906535
0.0702078176712
0.0702073451243
0.0702094427947
0.0702098830548
0.0702640022122
0.0702612386871
0.0702555207232
0.0702489461164
0.070241443281
0.0702356600328
0.070231390301
0.0702283246926
0.0702259029877
0.0702237127816
0.0702218098463
0.070219691985
0.0702172027638
0.0702153476923
0.0702138887403
0.0702118514008
0.0702094491046
0.070207448123
0.0702056677847
0.0702037509191
0.0702011527828
0.0701984732957
0.0701965117754
0.0701954584222
0.0701950348332
0.0701947545314
0.0701950345132
0.0701962541177
0.0701988715327
0.0702030481674
0.0702084499484
0.0702148200849
0.0702224057408
0.0702311681772
0.0702412112098
0.0702522543107
0.0702646479986
0.0702773530008
0.0702905903792
0.0703045388614
0.0703187620551
0.0703333223968
0.0703466375348
0.0703617713963
0.0703754492688
0.0703898633087
0.0704040373218
0.0704181375803
0.0704322313731
0.0704463038548
0.0704604992227
0.0704753250816
0.0704910912349
0.0705065370441
0.0705199098106
0.0705322881803
0.0705447262207
0.0705547532123
0.0705613352437
0.0705660707661
0.0705702616302
0.0705745953524
0.0705774439117
0.0705790168752
0.0705779889016
0.0705740196733
0.0705673680293
0.0705573251303
0.0705426928261
0.0705223459682
0.0704960752097
0.070463745887
0.0704270988008
0.0703887134535
0.0703557985664
0.0703271501575
0.0703058749633
0.0702910988785
0.0702817708964
0.0702761179239
0.0702725168883
0.0702701457826
0.070269535079
0.0702711412568
0.0702753510389
0.0702827718802
0.0702939660938
0.0703089249442
0.0703274420164
0.0703495429486
0.0703715282497
0.0703918419584
0.0704156273652
0.0704408231445
0.0704678278208
0.0704970289277
0.0705266650221
0.0705527685575
0.0705730914204
0.0705898167994
0.0706041514129
0.0706150342356
0.0706191564843
0.0706189631862
0.0706153522923
0.0706070246171
0.070593042818
0.0705714613941
0.0705393018704
0.0704966478236
0.0704369273089
0.0703821646802
0.0703372354559
0.0703057924815
0.0702871656344
0.0702794962385
0.0702781605379
0.0702776501077
0.0702804513875
0.0702884416732
0.0703024999249
0.0703258101154
0.0703579159627
0.0704020606145
0.0704418032585
0.0704718644354
0.0704930110782
0.0705082008955
0.0705188260276
0.070523805806
0.0705240100635
0.0705185670417
0.0705048403012
0.0704796039004
0.0704443723366
0.0703897089551
0.0703382041805
0.0702949146237
0.0702666293011
0.0702505812782
0.070241691863
0.0702354779749
0.0702350807964
0.0702426453228
0.0702595228394
0.0702925094329
0.0703283146732
0.0703548027621
0.0703715165582
0.0703800480674
0.0703797730519
0.070374190763
0.0703626226761
0.0703426605651
0.0703114973142
0.0702721328814
0.0702334820363
0.0702059170327
0.0701882336467
0.0701769233279
0.0701687317943
0.0701692126721
0.0701793834624
0.0701998510317
0.07022328954
0.0702355488784
0.0702392028157
0.0702323249723
0.0702213630368
0.0702130854431
0.0702063688628
0.0701953015624
0.0701834123487
0.070174927834
0.0701696330657
0.0701659226977
0.070163721295
0.0701662214039
0.0701757252781
0.0701883812923
0.0701974153946
0.0702032353721
0.0702067585176
0.0702074906398
0.0702056188864
0.0702015040111
0.0701996154764
0.0702007665805
0.0702049081313
0.0702052813717
0.0703081438308
0.0703018110343
0.0702930068745
0.0702835325966
0.0702743781214
0.0702673004839
0.0702620247546
0.0702581387995
0.0702547226429
0.0702514217923
0.0702485197234
0.0702452065587
0.0702416216833
0.0702391007638
0.0702372414224
0.0702344330414
0.0702308988294
0.0702280806559
0.0702259472186
0.0702237328529
0.0702206642582
0.0702171499872
0.0702143927942
0.0702128281086
0.0702125281459
0.0702126815066
0.0702133320941
0.0702151749575
0.070218508633
0.0702236849302
0.0702304088014
0.0702384259279
0.070248077097
0.0702594689731
0.070272697384
0.0702872002282
0.0703032049591
0.0703198331644
0.070337259692
0.0703549828195
0.0703725450907
0.0703900225481
0.0704054856202
0.0704224973829
0.0704383916085
0.0704551239532
0.0704721105631
0.0704893574491
0.0705072820807
0.0705259726042
0.0705454310784
0.0705656035788
0.0705865148855
0.0706070373159
0.0706245289957
0.0706403493947
0.0706565325589
0.0706701276655
0.0706795448008
0.0706868557334
0.0706935623755
0.0707001478811
0.0707047845584
0.0707078013965
0.0707079638476
0.0707048089962
0.0706993651595
0.0706903628943
0.0706762460351
0.0706547808341
0.0706258327569
0.0705896649281
0.0705495925698
0.070508063904
0.0704735636896
0.0704442077241
0.0704213215514
0.0704051814236
0.0703957890179
0.0703915510025
0.0703901873365
0.0703896239882
0.0703897103797
0.0703916752921
0.0703963634203
0.0704046713476
0.0704170434708
0.0704333730782
0.0704531864198
0.0704777694152
0.0705026693692
0.0705257309483
0.0705520869277
0.0705800096396
0.0706088442324
0.0706390585116
0.0706701069846
0.0706996400503
0.0707231180395
0.0707407357608
0.0707543351324
0.0707657519116
0.0707718222635
0.0707718473346
0.0707675430196
0.0707584706249
0.0707440128048
0.0707218914499
0.070688007458
0.0706420089447
0.0705774948209
0.0705176975923
0.0704691835624
0.0704374397727
0.070421502813
0.0704173135991
0.0704160496036
0.0704144869366
0.0704177389183
0.0704250590813
0.0704374921546
0.0704596004187
0.0704921374692
0.07053917803
0.0705809416351
0.0706122755005
0.0706324770544
0.0706444814089
0.0706506812518
0.070651523393
0.0706475512103
0.0706382492564
0.0706216518738
0.0705941803001
0.0705582971261
0.0705006672603
0.0704448868723
0.0703968393172
0.0703632899622
0.0703424608032
0.0703301086567
0.0703209401715
0.0703192066462
0.0703265042886
0.0703430461154
0.0703756937609
0.0704080082744
0.0704306864298
0.0704425756958
0.0704463039091
0.0704400674125
0.0704286272763
0.0704122444365
0.0703873942611
0.0703489414775
0.0703063964911
0.070262475085
0.0702306236204
0.0702087650342
0.0701935846984
0.0701805534886
0.0701774857763
0.0701843197182
0.0702021509254
0.0702241836623
0.0702343449741
0.0702357056911
0.07022574087
0.0702120807143
0.070201552256
0.0701927202902
0.0701786673808
0.0701635120613
0.0701516589297
0.0701432964281
0.0701380116118
0.0701372689447
0.0701427366029
0.0701552861049
0.0701693935023
0.0701788810725
0.070185275662
0.0701895647331
0.0701912394614
0.0701905228139
0.0701879427205
0.0701879363727
0.0701918111899
0.0701996351574
0.0702000334904
0.0703563869736
0.0703466276565
0.0703346211799
0.0703220498106
0.0703099801026
0.0702992930342
0.0702900306114
0.0702816910985
0.0702736804407
0.0702662353691
0.0702597687195
0.0702532954043
0.0702469914034
0.0702424892575
0.0702394006158
0.0702352168374
0.0702300183958
0.0702259168819
0.0702230281119
0.0702199864199
0.0702159342538
0.070211598691
0.0702082345547
0.0702062131035
0.0702061093214
0.0702069950651
0.0702085819181
0.0702115122128
0.0702159795049
0.070222641375
0.0702312860004
0.0702417267142
0.0702542055505
0.0702686230575
0.0702852176943
0.0703036713709
0.0703240417483
0.0703453805991
0.0703677526854
0.0703901354034
0.0704114966033
0.070432731031
0.0704519666915
0.0704714548326
0.0704894884059
0.0705087224382
0.0705287961093
0.0705496145146
0.0705718731611
0.070595704052
0.0706211565641
0.0706477096743
0.070675300772
0.0707029612738
0.070726892712
0.0707476611867
0.0707682768536
0.0707864896686
0.0707998376806
0.0708108816355
0.0708212404286
0.0708303786382
0.0708364077722
0.0708413317741
0.0708438741483
0.0708424669817
0.0708381562985
0.0708288648262
0.0708120340961
0.0707859665521
0.0707513472812
0.0707072246591
0.070657331903
0.0706068769084
0.0705659218836
0.0705324888238
0.0705062667654
0.0704863054462
0.0704731609887
0.0704669609682
0.0704664076987
0.0704679472389
0.0704703563274
0.0704748401771
0.0704814783008
0.0704917112267
0.0705058142835
0.0705240822897
0.0705459612428
0.0705733920972
0.0706017234176
0.0706271604069
0.0706559800496
0.0706855250785
0.0707150938526
0.0707466995281
0.0707806180526
0.0708160631177
0.0708466620574
0.0708682583276
0.0708845393932
0.0709000990485
0.0709103794999
0.0709115837988
0.070907489138
0.0708982412595
0.070882980386
0.0708587823597
0.0708209291776
0.0707700990651
0.0706952896018
0.0706250527663
0.0705692013225
0.0705341293514
0.0705177488486
0.0705143070209
0.0705146382229
0.0705145464673
0.0705168129002
0.0705220910184
0.0705342197411
0.0705581287976
0.0705929934555
0.0706423376801
0.0706870327312
0.0707215648583
0.0707436132038
0.0707553739177
0.0707597318619
0.0707574892914
0.0707474013114
0.0707328836119
0.0707137267986
0.070686192077
0.0706521068371
0.0705929268702
0.0705326032178
0.0704780764191
0.0704363600781
0.0704076282333
0.0703897019209
0.0703778434268
0.0703767944031
0.0703861942076
0.0704044080178
0.0704374641787
0.0704676500988
0.0704875891366
0.0704963257133
0.0704977507039
0.0704889110221
0.0704737452626
0.0704531290625
0.0704241970723
0.0703808775344
0.0703333252594
0.0702840720105
0.070248495603
0.0702239307921
0.0702058063061
0.0701885767853
0.0701817932119
0.0701845996666
0.0701985976473
0.0702178103346
0.0702265597904
0.0702273306113
0.0702183899945
0.070205597931
0.0701929109103
0.0701798401714
0.070160154192
0.0701399435137
0.0701248430898
0.0701163358614
0.0701126204498
0.0701150803077
0.0701243823084
0.0701401718829
0.0701561817743
0.0701664342546
0.0701723749386
0.0701764694546
0.070178415803
0.0701779485142
0.0701759392962
0.0701771418295
0.0701830295426
0.0701939640126
0.0701947996759
0.070399811685
0.0703876720726
0.0703733074848
0.0703590101788
0.0703442426661
0.0703299204076
0.0703162125774
0.0703032624552
0.0702908695397
0.0702794261135
0.0702690221903
0.0702586691377
0.0702490461719
0.0702420998713
0.0702366684741
0.070230025173
0.0702232374704
0.0702186603526
0.0702152521712
0.0702109928623
0.0702060681065
0.070202127785
0.0701991679436
0.0701971684231
0.0701974351117
0.0701996615645
0.0702034093479
0.070208431532
0.0702149423948
0.0702235468998
0.0702341905563
0.0702464089196
0.0702602051131
0.0702757595844
0.0702940831824
0.0703154822316
0.0703395725188
0.0703648937633
0.0703916161679
0.0704184988531
0.0704439780085
0.0704696620793
0.0704943495761
0.0705188621907
0.0705419250229
0.0705666477576
0.0705921260664
0.0706184414652
0.0706461534384
0.0706757452345
0.0707073668208
0.0707403133678
0.0707744583639
0.0708088679809
0.0708396643178
0.0708664442745
0.0708916311905
0.0709135942891
0.070930382541
0.0709444987904
0.0709579813935
0.0709702521572
0.0709781513587
0.0709848865526
0.0709895155532
0.070989325485
0.0709845748886
0.0709730124423
0.070953000144
0.0709226059807
0.0708818519422
0.0708296099304
0.070769163147
0.0707069423423
0.070655454782
0.0706137016365
0.0705812750685
0.0705555832921
0.0705359814363
0.0705243608192
0.0705219250451
0.0705250873357
0.070531277765
0.0705401096463
0.0705505489736
0.0705640668926
0.0705807229278
0.0706014395367
0.0706260396925
0.070655969646
0.0706878160014
0.0707161148984
0.0707475989407
0.0707783728903
0.0708091320293
0.0708431257384
0.0708814185524
0.0709246322104
0.0709666651437
0.0709995862162
0.0710227509608
0.0710410505524
0.0710530383599
0.0710558448785
0.0710533290547
0.0710456486406
0.0710304480789
0.0710042900122
0.0709611964029
0.0709001750249
0.0708106462782
0.0707234766912
0.0706563212264
0.070614869549
0.0705942393182
0.0705881277102
0.0705866280915
0.0705852970253
0.0705868221366
0.0705930537696
0.0706075923638
0.0706345946654
0.0706726457123
0.070726217595
0.0707773171298
0.0708181188421
0.0708454397979
0.0708595510275
0.0708638637224
0.0708603173973
0.0708475004011
0.0708307758034
0.070811507492
0.070784706743
0.0707496428457
0.070685553298
0.070616802458
0.0705519537586
0.0704991706686
0.0704587291077
0.0704323489131
0.0704163512786
0.0704155520003
0.0704271566838
0.0704469141735
0.0704800715069
0.0705107801011
0.0705306990435
0.0705389389867
0.0705406275489
0.0705317813493
0.0705157530442
0.0704930437447
0.0704609233277
0.0704139756597
0.0703591410127
0.0703025825597
0.0702605821186
0.0702308671274
0.0702086840536
0.0701886215349
0.0701798176096
0.070180409892
0.0701894532041
0.0702041975886
0.0702120328992
0.0702138362672
0.0702071161628
0.0701970761279
0.0701834738358
0.0701648822391
0.0701365255081
0.0701097912998
0.0700933248305
0.0700873672541
0.0700865860792
0.070091962381
0.0701043130982
0.0701232539409
0.0701414437152
0.0701527468226
0.0701591802422
0.0701642550073
0.0701668384683
0.0701665358873
0.0701646489529
0.070166432849
0.0701740888167
0.0701882264761
0.0701902574431
0.0704364959134
0.0704227552296
0.0704069100539
0.0703907938608
0.0703738878675
0.0703568294129
0.0703397206344
0.0703232855248
0.070307561489
0.0702927933558
0.0702788331154
0.0702651486527
0.0702529417644
0.0702433409518
0.0702338661432
0.0702236894633
0.0702154484228
0.0702094937986
0.070203457474
0.070196594106
0.0701909336949
0.0701876215061
0.0701852919305
0.0701841052378
0.0701855380795
0.0701895694679
0.0701959638632
0.0702036129907
0.0702123734531
0.0702225802699
0.0702346512552
0.0702482338655
0.0702636759921
0.070281454673
0.0703032397031
0.070328531407
0.0703569736602
0.0703869311985
0.0704184292129
0.0704503488687
0.0704808195724
0.0705116528456
0.0705424693709
0.0705727177585
0.0706029385013
0.07063484812
0.0706673609757
0.0707003564421
0.0707338239151
0.070768413815
0.0708043490599
0.0708408554607
0.0708782325784
0.0709163115099
0.07095192357
0.0709840606842
0.0710137552693
0.0710383734329
0.0710580782523
0.0710744197211
0.0710904021137
0.0711061154655
0.0711183891971
0.071129412131
0.0711366673534
0.0711366516649
0.0711295230466
0.0711142031816
0.0710904431679
0.0710566250464
0.0710117031539
0.0709545473857
0.0708832604085
0.0708075738063
0.0707427350639
0.0706899869013
0.0706495557261
0.0706192044861
0.0705964521011
0.0705808767967
0.070575085013
0.0705782516608
0.0705869335686
0.0705987864931
0.0706128226095
0.0706298263908
0.0706490323139
0.0706715266162
0.0706979148204
0.0707291262344
0.0707641532773
0.0707976047048
0.0708341105783
0.0708706184158
0.0709077380169
0.0709474360922
0.0709923430589
0.0710425158741
0.0710922322783
0.071134354513
0.0711642552501
0.0711845878045
0.0711957699188
0.0711983805121
0.0711970774622
0.0711910643824
0.0711764250787
0.0711482210911
0.0710994251406
0.0710287139988
0.0709245318319
0.0708216407982
0.0707417976013
0.070690253809
0.0706621206223
0.070651154722
0.0706470737677
0.0706441841769
0.0706452182802
0.0706525338301
0.0706697805569
0.070701402082
0.0707452054843
0.0708061039395
0.0708647511322
0.0709126123215
0.0709460978186
0.0709641818147
0.0709698916603
0.07096702079
0.070955333093
0.0709396943866
0.070920677588
0.0708918895928
0.0708510361169
0.0707760771952
0.0706938256721
0.0706148545049
0.070552174366
0.07050347746
0.0704692981055
0.0704481965332
0.0704460713831
0.07045773744
0.0704768059238
0.0705102748455
0.0705442760648
0.0705690325361
0.0705810237749
0.0705852611358
0.0705775484565
0.07056125451
0.070537673015
0.0705036615202
0.0704527723212
0.0703891431257
0.0703236078775
0.0702730735872
0.0702352136986
0.0702072794169
0.0701820639115
0.0701689497025
0.0701670627464
0.0701744605552
0.070189123055
0.0701975965911
0.0702011103904
0.0701965413777
0.0701881514841
0.0701727821462
0.0701477381415
0.0701119298891
0.0700820679927
0.0700649938705
0.0700609764213
0.0700630390087
0.0700708171602
0.0700847669385
0.0701058915027
0.0701264997185
0.0701395642189
0.0701473389729
0.0701541059823
0.0701573391632
0.0701573737719
0.0701556894737
0.0701576421895
0.0701664562286
0.0701832345351
0.0701868874167
0.0704706573323
0.0704553203802
0.0704380835514
0.0704206363001
0.0704024529698
0.0703835218139
0.0703638647361
0.0703448380797
0.0703266289691
0.0703092217542
0.0702922269753
0.0702755736906
0.0702604655512
0.0702470996543
0.0702334019642
0.0702201170841
0.0702098933091
0.0702011618683
0.0701914097314
0.0701829942128
0.070177799651
0.0701746797845
0.0701726218995
0.0701726621043
0.0701754287166
0.0701813568106
0.0701901151256
0.0702004834302
0.0702112716609
0.0702227717187
0.0702359496694
0.0702510899751
0.0702692710215
0.0702901088533
0.0703152638627
0.0703439379789
0.0703760628018
0.0704102141343
0.0704457537231
0.0704816274395
0.0705166497101
0.0705521266162
0.0705882788056
0.0706239921226
0.0706608306959
0.0706997105287
0.0707393871744
0.0707793731095
0.0708196324496
0.0708602082388
0.0709007559339
0.0709415108139
0.0709832890599
0.0710256128162
0.0710659508391
0.0711036370869
0.0711378924922
0.0711666531929
0.0711921130446
0.0712133466155
0.0712326021861
0.0712512486095
0.0712676986838
0.0712823957582
0.0712896608074
0.0712867807289
0.0712741535191
0.0712515035486
0.0712204305892
0.0711817872001
0.0711338110811
0.0710731452011
0.0709945537434
0.0709061081576
0.0708259662894
0.0707597424231
0.0707091576447
0.0706747869059
0.070653456757
0.0706396257036
0.0706329460443
0.0706347221118
0.0706420134188
0.0706530525194
0.0706683417686
0.0706873962942
0.0707087019927
0.0707325357
0.0707597276313
0.0707918377468
0.0708300561469
0.0708700508817
0.0709142281259
0.0709593873479
0.0710058252939
0.0710549133738
0.0711084778208
0.0711637564442
0.0712175781506
0.0712663985897
0.0713025209422
0.0713250041001
0.0713347291275
0.0713369408266
0.0713378905451
0.0713332211701
0.0713176309077
0.0712852020108
0.0712285973658
0.071147507871
0.071030573091
0.0709138634351
0.0708242827992
0.0707650702484
0.0707293166062
0.0707120491178
0.0707056671641
0.0707028273621
0.0707062198787
0.0707166731812
0.0707375255422
0.0707734102522
0.0708206723903
0.0708861585967
0.0709518950832
0.0710054201231
0.0710432455618
0.0710651084579
0.0710734862646
0.0710734993775
0.0710661385474
0.0710554131181
0.0710366192288
0.0710007684746
0.0709454008562
0.0708523530255
0.0707519639654
0.070657585171
0.0705887245766
0.0705395214618
0.0705052411526
0.0704810973942
0.0704762868071
0.0704860343851
0.0705026537477
0.0705373131328
0.0705756967619
0.0706076741954
0.0706253398159
0.0706333122686
0.0706270930419
0.0706103560471
0.0705848152756
0.0705474936052
0.0704916797701
0.0704193367418
0.0703422659617
0.0702805937288
0.0702338960895
0.0701995928563
0.0701699183709
0.0701558278752
0.0701547195914
0.0701629587459
0.0701794759193
0.0701895418336
0.0701946169321
0.0701904681847
0.0701805480991
0.0701611707531
0.0701310488266
0.0700930610486
0.070061562358
0.0700429928826
0.0700386935529
0.0700414912306
0.0700501458632
0.0700644854495
0.0700866691066
0.0701100194285
0.0701256894965
0.0701358673418
0.0701451631538
0.0701494739984
0.0701500452934
0.070148543352
0.0701504996521
0.0701601722625
0.0701790750202
0.0701844961931
0.0705063883241
0.0704893568274
0.0704708098969
0.0704522617986
0.0704331264684
0.0704135079972
0.0703923883966
0.0703712681495
0.0703505679295
0.0703302778038
0.0703100350047
0.0702901301675
0.0702713530379
0.0702532992208
0.070235212347
0.0702188521329
0.0702056663747
0.0701927408052
0.0701794632317
0.0701701655716
0.070164703345
0.0701606237476
0.0701581472661
0.0701587846224
0.0701627360574
0.0701701589452
0.0701805938526
0.0701924223684
0.070204722586
0.070218049253
0.070233230733
0.0702511400043
0.070272444435
0.0702965232013
0.0703240651583
0.0703548259352
0.0703891957915
0.070426273132
0.0704657821093
0.070506241182
0.0705469395628
0.070589010149
0.0706322462758
0.0706746686722
0.0707183651442
0.0707634883511
0.0708088109506
0.0708545337047
0.0709011028654
0.0709484370208
0.0709966016397
0.0710467204282
0.0710983139635
0.0711494527732
0.0711962820144
0.0712380044549
0.0712732799726
0.0713023156115
0.0713289250675
0.0713533558327
0.071375588551
0.0713937716856
0.0714087026938
0.0714218309582
0.0714264939064
0.0714215551422
0.0714074667066
0.0713817663222
0.0713447405453
0.0712987829303
0.0712441984191
0.0711775160899
0.071092746631
0.0709949059898
0.0709036819184
0.0708258901347
0.0707651663827
0.0707249189481
0.070703421958
0.0706923933579
0.0706869267948
0.0706869289507
0.0706896372225
0.0706966123715
0.0707110811191
0.070731412099
0.0707559295933
0.07078347797
0.070813438073
0.0708478484402
0.0708891090788
0.070935380847
0.0709894515059
0.0710468909383
0.07110744665
0.0711696961932
0.0712316859709
0.0712902841269
0.071345165144
0.0713962103987
0.0714356355934
0.0714596520516
0.0714685535157
0.071470580245
0.0714717563209
0.0714658342141
0.0714480249499
0.0714122074909
0.0713496681416
0.071260450025
0.071133654655
0.0710051038248
0.0709059171826
0.0708384494296
0.0707939122653
0.0707686545511
0.0707589895116
0.0707565160387
0.0707646593762
0.0707817122454
0.0708083709409
0.0708476219404
0.0708967303914
0.0709653555617
0.0710377910784
0.0710992803562
0.0711429454897
0.0711688390023
0.0711801093831
0.0711820511913
0.0711767195705
0.0711675740779
0.0711463471145
0.0711016764593
0.0710319450342
0.0709219417627
0.0708024134601
0.0706913607269
0.0706159582054
0.0705676395537
0.0705372708511
0.0705138801591
0.0705061768059
0.0705128289469
0.0705263760225
0.0705626801092
0.0706063471786
0.0706469161372
0.07067178859
0.0706845183369
0.0706805227641
0.0706617736143
0.0706304108999
0.0705865395482
0.0705246493431
0.0704454771521
0.070357190758
0.0702853441113
0.0702309587225
0.0701911047902
0.0701583005477
0.0701430305986
0.0701429665459
0.0701538303757
0.0701735793007
0.070186954928
0.0701936883108
0.0701889141135
0.0701754627777
0.0701522414369
0.0701196281266
0.0700809732643
0.0700483459406
0.0700274455553
0.0700210538327
0.0700224966263
0.0700298451623
0.070043223353
0.0700657262602
0.0700923318709
0.070111580779
0.0701253187219
0.0701374159076
0.0701431014294
0.0701444826427
0.0701432218096
0.0701449822916
0.0701551808627
0.0701756476951
0.0701831531349
0.0705495012451
0.07053020638
0.0705098405012
0.0704901030577
0.0704694547099
0.070447703452
0.0704245399304
0.070400934524
0.0703771361577
0.0703534238012
0.0703297766732
0.0703066489242
0.0702841295519
0.0702616439486
0.0702397942526
0.0702206192186
0.070203789399
0.0701868579227
0.070171755104
0.0701615578001
0.0701541964599
0.0701482110088
0.0701448227044
0.0701453078227
0.0701493308063
0.0701572050258
0.0701685239588
0.0701819384153
0.070196416841
0.0702124136954
0.070230322497
0.0702509941643
0.0702747094807
0.0703013714652
0.0703310729766
0.0703636488338
0.0704001461312
0.0704400389937
0.0704834424864
0.0705287587567
0.0705754293383
0.0706240680806
0.0706742744922
0.0707242882825
0.0707753234517
0.0708268946983
0.0708781521886
0.0709294005171
0.0709812355465
0.0710346732394
0.0710911490734
0.0711493211945
0.0712071538576
0.0712631277445
0.0713147332033
0.0713619873401
0.0714012837754
0.0714308675006
0.0714569880036
0.0714822609175
0.0715042895455
0.0715190211419
0.0715291724515
0.0715364247468
0.0715363506492
0.0715301234373
0.0715184181243
0.0714959513444
0.0714590509383
0.0714077534122
0.07134388518
0.0712680028276
0.0711761122851
0.0710730778961
0.0709762124107
0.07089143583
0.0708236124416
0.0707755961945
0.0707478452702
0.0707342303627
0.0707281924922
0.0707271100517
0.0707274816314
0.0707317465545
0.0707446297925
0.0707657295815
0.0707942368205
0.0708277345512
0.0708637139938
0.0709026146008
0.0709474624915
0.070999096515
0.071061897037
0.0711310334587
0.0712042837338
0.071278064673
0.0713498480066
0.0714143301918
0.0714714731465
0.0715235006475
0.0715643401746
0.0715889732172
0.071596630847
0.0715987117819
0.071599295121
0.0715917363217
0.0715718655604
0.0715326425231
0.07146496218
0.0713684911231
0.0712330471309
0.0710932866591
0.0709841603784
0.070908465036
0.0708567384214
0.070824421025
0.0708093178766
0.0708046922117
0.0708137310702
0.0708338593604
0.0708650977967
0.0709078727254
0.0709592762263
0.0710320962043
0.0711135175474
0.0711864436142
0.0712400325591
0.0712734089887
0.0712886237843
0.0712907005061
0.0712817624743
0.071265982449
0.0712387101763
0.0711883162136
0.0711112651747
0.0709891884599
0.070852846426
0.0707267701426
0.0706423511662
0.0705926732891
0.070565106043
0.0705425551155
0.0705319059776
0.0705361024449
0.0705482882276
0.0705877689818
0.0706381541452
0.0706879032657
0.0707198346904
0.0707359929242
0.0707315815403
0.0707071062319
0.0706680150931
0.0706183165969
0.070551938515
0.0704672426167
0.070369963688
0.0702893413007
0.0702285474791
0.0701843031891
0.0701484786983
0.0701315856279
0.0701321407317
0.0701468831313
0.0701696639238
0.0701881382251
0.0701971553536
0.0701909382321
0.0701724376214
0.0701448344878
0.0701116901395
0.0700733162542
0.0700405070832
0.0700171450398
0.0700074600016
0.0700061123741
0.0700106784928
0.0700220852694
0.0700453552921
0.0700758038448
0.0700986410052
0.070116386842
0.0701310968227
0.0701382051866
0.0701403028911
0.0701390656591
0.070140309923
0.0701506364853
0.0701723556956
0.0701820447251
0.0705986690429
0.0705746459193
0.0705486628565
0.0705245749506
0.0705012308851
0.070477158355
0.0704523765284
0.0704270494485
0.0704010607042
0.0703747163847
0.0703483741289
0.0703226346028
0.0702972098016
0.0702719743356
0.0702481785371
0.0702267087915
0.0702065534158
0.0701872702959
0.0701719538785
0.0701609046231
0.0701515141754
0.0701442516425
0.070140302291
0.0701401976728
0.0701438600558
0.0701518505468
0.0701637265197
0.0701785802782
0.0701951604571
0.0702132783192
0.0702333159096
0.0702557813064
0.0702812747523
0.070309481583
0.0703407015705
0.070374992309
0.0704136423703
0.0704564873929
0.0705034517318
0.0705530584276
0.0706047105044
0.0706586346697
0.070713826198
0.0707692288434
0.0708262619186
0.0708849912879
0.070944774272
0.0710055499173
0.0710670790979
0.0711294200031
0.0711922085995
0.0712538953648
0.0713126938919
0.0713670928837
0.0714175272711
0.0714664123168
0.071509869369
0.0715438024861
0.0715729097511
0.0715996525166
0.0716218560444
0.0716338527322
0.0716391518604
0.0716407648201
0.071634507044
0.0716247430365
0.0716139125691
0.0715949544913
0.0715606265896
0.0715064778217
0.0714331879371
0.0713448681472
0.0712434632322
0.0711363272908
0.07103859658
0.070953823835
0.0708827791887
0.0708275791475
0.0707895318036
0.0707673909025
0.0707577097576
0.070756285554
0.0707581154591
0.0707639603661
0.0707771171752
0.0707983698303
0.0708294160464
0.0708675400837
0.0709103781503
0.0709566515156
0.0710066548154
0.0710614998884
0.0711274281993
0.0712015964692
0.0712815720589
0.0713662538729
0.07145103083
0.071526134247
0.0715907625553
0.0716460762122
0.0716860518559
0.0717071894781
0.0717121555775
0.0717155961533
0.0717175786676
0.0717119718872
0.0716929214576
0.0716500685725
0.0715751801166
0.0714675692377
0.0713191594141
0.071165471098
0.0710459438416
0.070963909183
0.0709099307092
0.0708766306169
0.0708587768254
0.0708504037123
0.0708544733791
0.0708709755147
0.07090260685
0.0709486830011
0.0710045088511
0.0710838957695
0.0711755402266
0.0712605701102
0.0713249422015
0.0713667925601
0.0713869951515
0.0713896676598
0.0713745720063
0.0713484135991
0.0713138973243