/*--------------------------------*- C++ -*----------------------------------*\
  =========                 |
  \\      /  F ield         | OpenFOAM: The Open Source CFD Toolbox
   \\    /   O peration     | Website:  https://openfoam.org
    \\  /    A nd           | Version:  8
     \\/     M anipulation  |
\*---------------------------------------------------------------------------*/
FoamFile
{
    version     2.0;
    format      ascii;
    class       volScalarField;
    location    "0.000664";
    object      T;
}
// * * * * * * * * * * * * * * * * * * * * * * * * * * * * * * * * * * * * * //

dimensions      [0 0 0 1 0 0 0];

internalField   nonuniform List<scalar> 
22800
(
350.005444986
350.021185787
350.041585533
350.072767893
350.106845357
350.137339847
350.1630096
350.185699341
350.207535105
350.230336607
350.254944694
350.281635397
350.309237695
350.33766033
350.362373092
350.382885434
350.401025344
350.418749795
350.436511379
350.453474465
350.467788252
350.479170102
350.486540684
350.489023076
350.48827281
350.485198206
350.479735623
350.471546041
350.460644839
350.447432758
350.430428215
350.408809924
350.383138529
350.353378248
350.319765407
350.28211826
350.24188843
350.198777963
350.15613523
350.115650808
350.075050852
350.035082222
349.993770532
349.956254029
349.913030216
349.866977321
349.816062849
349.76093754
349.703035978
349.645281494
349.588295078
349.530470749
349.472488063
349.416590283
349.364982312
349.322492721
349.290992562
349.266627225
349.247160119
349.234063195
349.228024923
349.227473166
349.233572204
349.250349427
349.277096792
349.315379724
349.368502242
349.438820576
349.528899109
349.640762537
349.776186483
349.936382867
350.125413568
350.31728114
350.488447827
350.628924515
350.736789316
350.813910129
350.86271297
350.887231583
350.895148247
350.893206165
350.884175494
350.868249547
350.844020959
350.809455619
350.763374396
350.702896997
350.625439625
350.536842407
350.439382273
350.338926131
350.245062385
350.145464145
350.039046911
349.920601265
349.785103766
349.643710046
349.52426403
349.435918682
349.378055561
349.343246187
349.323406457
349.319447406
349.327528871
349.354400678
349.413981417
349.517965998
349.676697206
349.906872576
350.18640292
350.468014543
350.666160608
350.792734443
350.865168155
350.901749507
350.915016558
350.912874036
350.895888601
350.850780944
350.764860319
350.632758676
350.45202439
350.237766048
350.011318257
349.829072936
349.695758378
349.609271706
349.562770574
349.544961707
349.544971635
349.556764728
349.593056274
349.669145855
349.806023735
349.994747592
350.224417773
350.399751728
350.507900733
350.562126656
350.578469228
350.570292462
350.538343275
350.469500537
350.347189328
350.172661903
349.969215643
349.803804717
349.69901063
349.641854713
349.61770313
349.616960002
349.634559393
349.686733921
349.787055127
349.933981549
350.087556511
350.180791488
350.223171758
350.232169146
350.218785561
350.181962775
350.114791283
350.010010942
349.888748475
349.792965603
349.736098723
349.702251553
349.689162486
349.700407221
349.739479341
349.805447778
349.87886799
349.923851432
349.941649552
349.941303889
349.927887169
349.893478678
349.843364607
349.798600673
349.778416367
349.77528223
349.781296236
349.797444435
349.827564044
349.865251699
349.893499405
349.907918342
349.914189937
349.910164578
350.010855073
350.03828924
350.07092392
350.114276597
350.159225462
350.197865939
350.231466869
350.262631985
350.29309912
350.323596745
350.355284619
350.388644643
350.422929221
350.456990321
350.487704372
350.513575791
350.536513905
350.558496241
350.579984763
350.600394577
350.617919999
350.632206473
350.642572302
350.648527208
350.650348754
350.648946641
350.644963938
350.638292233
350.629413932
350.61837578
350.603865362
350.584768501
350.56116883
350.532869306
350.500341275
350.463850662
350.425119103
350.383714943
350.342608317
350.303360589
350.264138619
350.22531879
350.184683469
350.147044521
350.102654175
350.054445359
350.001748129
349.94406514
349.882432571
349.818988783
349.754815553
349.689472043
349.622839274
349.557003633
349.495150698
349.442998121
349.404874835
349.376451004
349.35438369
349.339348097
349.331516268
349.330591281
349.334289554
349.34865666
349.37587953
349.415108739
349.46925375
349.5412848
349.634332887
349.750296052
349.890818429
350.056360652
350.249702086
350.449404381
350.622246506
350.759190683
350.866326454
350.944480143
350.995990323
351.023705024
351.033524365
351.032379386
351.024006082
351.007011332
350.978020575
350.935699074
350.8805107
350.812848215
350.73321643
350.644928285
350.548375464
350.447525838
350.352451258
350.253736613
350.149136554
350.034476309
349.903915131
349.763964391
349.63810314
349.541770751
349.479208017
349.445745905
349.428399777
349.422870925
349.42691234
349.449834857
349.506848013
349.611022532
349.773363378
350.009204544
350.292457591
350.575958377
350.772700939
350.898055231
350.97009554
351.008692247
351.026426702
351.022748771
350.99623387
350.938791027
350.84217104
350.703853707
350.518653245
350.301789173
350.073183386
349.888517922
349.752824999
349.665747999
349.620519458
349.603870193
349.60301962
349.611965685
349.645618452
349.718812924
349.853648752
350.039893346
350.269503136
350.443353497
350.548446151
350.599832926
350.614578048
350.603112539
350.565072875
350.491183995
350.364253189
350.185878273
349.975907302
349.80695816
349.701116376
349.643756166
349.617454063
349.615643448
349.631142305
349.678712142
349.773306041
349.919340565
350.069550018
350.160207562
350.201522737
350.211285223
350.195611865
350.152679925
350.083261946
349.981172557
349.862424189
349.768732816
349.710305583
349.669416605
349.655590175
349.670380746
349.714086199
349.783538292
349.858729713
349.903577007
349.919564814
349.915127834
349.895878377
349.858242256
349.809140757
349.770350814
349.755054529
349.754312603
349.762402642
349.781669745
349.814515865
349.854512036
349.885999676
349.903676093
349.912375885
349.908555366
350.023153091
350.074898518
350.132935915
350.200951621
350.26840033
350.327398968
350.380879615
350.431808205
350.481185226
350.529912396
350.578883674
350.626059559
350.670702939
350.713286959
350.752485068
350.786228562
350.816297352
350.845195786
350.873440997
350.899731253
350.922480249
350.941200616
350.955829348
350.965764527
350.970504608
350.970366619
350.967110462
350.960838561
350.952191558
350.941733054
350.928122171
350.909950605
350.886999116
350.858774876
350.825456939
350.786752142
350.74435488
350.698460555
350.652585954
350.607931719
350.564054104
350.521428904
350.476747392
350.435227151
350.387547378
350.335730452
350.278438716
350.215363169
350.14845764
350.079500203
350.009038371
349.935789869
349.858808573
349.780427198
349.704249153
349.637854564
349.5884171
349.550801172
349.520367864
349.498469693
349.485405066
349.480896685
349.480944014
349.490176873
349.515049889
349.555916816
349.6168767
349.699094372
349.80536115
349.936363949
350.095498432
350.285579224
350.508714935
350.731432814
350.919797393
351.069233075
351.184680337
351.268553516
351.324691303
351.356399151
351.36869634
351.368172668
351.358902186
351.337605543
351.301288787
351.249882416
351.184425983
351.105946586
351.015593532
350.918969276
350.81587732
350.710887226
350.612397397
350.512269137
350.406571621
350.291926011
350.161878093
350.019107555
349.880990015
349.7688266
349.690247938
349.646354595
349.624022808
349.613736757
349.614686226
349.634052589
349.690857824
349.800363452
349.972472332
350.221842649
350.521630659
350.821761309
351.029237762
351.162257588
351.240230605
351.281946794
351.293881437
351.279673302
351.23950921
351.165082052
351.050786001
350.897761867
350.703040561
350.484135548
350.252788969
350.062631578
349.918580223
349.822354531
349.769064683
349.745506901
349.737796298
349.743944617
349.77455755
349.845426005
349.982095431
350.172163949
350.409774906
350.588071216
350.689111341
350.732035383
350.739557871
350.720742944
350.671475274
350.586690211
350.448646473
350.261619756
350.039251976
349.859313369
349.742642866
349.674599412
349.634559785
349.628350332
349.642772628
349.687039864
349.774642752
349.924523567
350.074250606
350.163312178
350.201708969
350.209712529
350.189343007
350.137153756
350.057099788
349.946486728
349.820811001
349.720319343
349.654815388
349.604191229
349.589730226
349.606881724
349.654423822
349.726923587
349.803982097
349.847007475
349.859237745
349.853657685
349.835851746
349.802662877
349.756013522
349.717151369
349.70234377
349.702780455
349.713895996
349.738640928
349.77800827
349.82417543
349.862596754
349.889410118
349.906309888
349.904079774
350.036018406
350.114426558
350.197349283
350.286780714
350.374981801
350.456339111
350.53355055
350.608632604
350.681940823
350.75425378
350.825601105
350.892557628
350.954199977
351.012943783
351.067826932
351.115220506
351.157311856
351.197521754
351.236203413
351.271059464
351.301186399
351.326647277
351.34729711
351.362013824
351.370521289
351.372455155
351.370124556
351.364788857
351.356406781
351.346269484
351.333195232
351.315502122
351.292205001
351.261945217
351.224682539
351.180248973
351.130078181
351.074573631
351.018240764
350.963160464
350.907873627
350.854008927
350.797558202
350.740372242
350.677940756
350.611672622
350.540018478
350.463102334
350.38372269
350.303161939
350.221339689
350.135921987
350.047418478
349.959572324
349.872121366
349.791910181
349.728545934
349.678929996
349.637132049
349.605945903
349.586342582
349.576105753
349.570512906
349.57527798
349.597631284
349.64184054
349.710610989
349.804809235
349.926514472
350.078061684
350.266243633
350.494844643
350.767919142
351.045307366
351.277988517
351.462037567
351.602226238
351.701141701
351.764394221
351.800723188
351.817245724
351.818210344
351.808563843
351.784646832
351.742010802
351.681691653
351.604841881
351.513658191
351.409406221
351.298855758
351.183037828
351.068883826
350.963261846
350.85386686
350.736014669
350.608957009
350.467635287
350.31385454
350.160737558
350.025749538
349.921227053
349.857592616
349.823372471
349.805188478
349.803090532
349.820333747
349.878651096
349.996806013
350.185887394
350.464232633
350.801443532
351.145144528
351.381964079
351.533521087
351.620973741
351.663927025
351.672006533
351.652085585
351.598279537
351.503391756
351.36909552
351.199706107
350.991212666
350.760322083
350.516463254
350.312090372
350.15021474
350.033114531
349.959734249
349.914871534
349.886456232
349.885184004
349.912001533
349.989233289
350.1447648
350.355545359
350.615770976
350.80848467
350.911567776
350.947745584
350.946667236
350.920237598
350.860927789
350.764510947
350.610887147
350.406295524
350.163564063
349.963164152
349.825923289
349.73610476
349.67702674
349.661904453
349.67281262
349.714034644
349.797099532
349.950002196
350.108920295
350.204706476
350.245728563
350.25227961
350.225714682
350.160573155
350.061651763
349.9325895
349.787183935
349.666896048
349.587870206
349.535780393
349.527394174
349.545336726
349.592410559
349.663243065
349.740430639
349.78473459
349.803436499
349.805106148
349.794601496
349.766171875
349.718344863
349.67153859
349.651013838
349.64900829
349.660719817
349.689662204
349.736024779
349.790609421
349.838598801
349.875239374
349.901022417
349.901306353
350.048666494
350.15036839
350.250379431
350.354782862
350.459524741
350.562029485
350.661532367
350.759105214
350.85492238
350.949444906
351.041777012
351.128765388
351.210943017
351.291783724
351.368703235
351.436617638
351.499293136
351.560170275
351.617370202
351.667552775
351.711929963
351.75139339
351.784268914
351.808757657
351.825773909
351.833682583
351.834472065
351.83168646
351.824703211
351.814144625
351.799120918
351.777306164
351.746854209
351.706651763
351.657865459
351.601173187
351.537090879
351.465144732
351.390479189
351.316787943
351.242158933
351.168492403
351.092541535
351.01359761
350.92926906
350.842221045
350.750595317
350.65470003
350.556204843
350.456295224
350.354074705
350.246870104
350.13895766
350.038041272
349.942963192
349.85571941
349.783750577
349.725096307
349.675389059
349.63774207
349.614585551
349.60386538
349.597556548
349.601863416
349.625158349
349.67285509
349.745558072
349.846198787
349.980214809
350.155662155
350.375972235
350.644210298
350.968675821
351.313012798
351.609098543
351.84547604
352.027689129
352.155305622
352.232391655
352.27360592
352.295527099
352.302241379
352.296429637
352.275729343
352.23120071
352.163671039
352.075158654
351.970128547
351.850459304
351.722163052
351.588186198
351.45209443
351.32460025
351.190016499
351.044009422
350.888010985
350.719689927
350.543006806
350.373102558
350.221301166
350.092376188
350.002022938
349.949916394
349.92551377
349.923388568
349.943173106
350.008508887
350.14157653
350.355616426
350.670253965
351.062290931
351.471056887
351.759067522
351.944974899
352.050392694
352.097792049
352.103652092
352.079334674
352.015153215
351.906507904
351.754969277
351.565232188
351.333839076
351.075522433
350.800387594
350.565398463
350.373876961
350.226312672
350.123707815
350.051048028
350.003418701
349.997545478
350.02708593
350.118208908
350.300865154
350.54824982
350.852140352
351.075377742
351.18689859
351.216876813
351.208319994
351.173481415
351.106867116
351.000661097
350.828780647
350.597347647
350.319578388
350.078686339
349.906801437
349.78825937
349.71007199
349.68788989
349.698346447
349.742909722
349.835103749
349.999003943
350.176963533
350.284783294
350.330269402
350.337724988
350.305111787
350.224700311
350.100998116
349.943764833
349.772945914
349.627070133
349.529475482
349.475954549
349.473685634
349.492054114
349.535336327
349.59894632
349.676667634
349.732389246
349.767125055
349.779007577
349.774542175
349.747691037
349.695077795
349.637577499
349.608641921
349.602339488
349.614182112
349.645753577
349.697981527
349.761190674
349.8193573
349.865441156
349.899292785
349.901481761
350.058711443
350.178972346
350.292683289
350.40924056
350.527800905
350.648943039
350.768586638
350.885597138
351.000090735
351.112598618
351.222267691
351.327336086
351.429620395
351.53085106
351.626357193
351.714550463
351.799678833
351.881916882
351.956662152
352.023097247
352.083784235
352.139463689
352.186166757
352.223960609
352.253998493
352.271876933
352.278998972
352.279052033
352.275050166
352.265141328
352.248324603
352.221988944
352.185058443
352.136508554
352.078361766
352.009354408
351.929984904
351.839769535
351.742725331
351.64295172
351.542438096
351.444046407
351.345171045
351.243022647
351.136978039
351.028375116
350.914937215
350.796899197
350.674965226
350.550168625
350.420802576
350.288445193
350.159316639
350.039473838
349.930274204
349.832687332
349.751287642
349.681630437
349.623298834
349.578006495
349.550920552
349.541739908
349.539880872
349.548676298
349.579087314
349.634516296
349.714314298
349.826362378
349.979506871
350.182768554
350.442982194
350.761820447
351.136542458
351.536716736
351.888779665
352.176186457
352.404007898
352.570723214
352.676406917
352.731567605
352.760124003
352.774590877
352.773066251
352.756561677
352.714947878
352.645221568
352.547170775
352.426666054
352.287727493
352.135316001
351.975191742
351.807331945
351.643228516
351.473062743
351.292956959
351.101076454
350.89704859
350.686309213
350.490334693
350.319929725
350.174314454
350.065886513
349.998485771
349.967357356
349.965925688
349.990188008
350.065761608
350.21651436
350.459236498
350.818125319
351.271142407
351.755188981
352.106120779
352.333618513
352.461094923
352.515983988
352.523520728
352.498637568
352.43038518
352.313622524
352.147743192
351.937033145
351.675961224
351.377684476
351.050794816
350.765037825
350.532524163
350.353244077
350.225109525
350.135720573
350.084412948
350.083635234
350.119335009
350.21877327
350.415889452
350.696136151
351.052680112
351.320844839
351.455659494
351.493186312
351.483981758
351.442473326
351.366530238
351.247808873
351.052502801
350.785405341
350.459257555
350.169029629
349.959518467
349.815532348
349.7229649
349.696004444
349.707859543
349.757738845
349.864772985
350.052483318
350.262947227
350.391287903
350.442119235
350.449142989
350.410707384
350.314437558
350.166406284
349.978763198
349.77868803
349.604572128
349.485737445
349.426635993
349.424927651
349.441183537
349.479945873
349.54152384
349.629560649
349.702191471
349.750131355
349.770275045
349.768891609
349.740012785
349.679207667
349.609547877
349.572624247
349.56337532
349.575761411
349.609587379
349.667435972
349.738903322
349.806181191
349.860259367
349.899926692
349.903757777
350.06753371
350.204021553
350.330961476
350.460396017
350.59222391
350.728499564
350.866536167
351.001578411
351.133189311
351.261956115
351.387407783
351.509076805
351.628717888
351.746117019
351.856884502
351.962359867
352.065831839
352.163634864
352.250754107
352.331463074
352.407510319
352.475444384
352.532830453
352.582496717
352.623160722
352.649795983
352.663134249
352.666793262
352.664205269
352.6550024
352.637614605
352.609781823
352.570932418
352.517952547
352.452474876
352.372415129
352.278676815
352.171158969
352.052695855
351.92693874
351.798237463
351.671846296
351.546504513
351.417864743
351.287080112
351.154885129
351.018013113
350.876405826
350.731345193
350.58315648
350.431978441
350.279330526
350.128761697
349.98541085
349.852909028
349.736622482
349.637886406
349.553948395
349.488316639
349.438669777
349.409719239
349.401394814
349.40380825
349.422771155
349.466085535
349.532125591
349.624747782
349.756514105
349.939460089
350.181025278
350.487102326
350.858824785
351.289634089
351.742111749
352.138283169
352.463373221
352.726034843
352.930955343
353.075528053
353.160242196
353.203067065
353.222532245
353.220425776
353.202669937
353.162984615
353.09343598
352.989349968
352.854518628
352.694600674
352.515904411
352.326122688
352.125578897
351.924776787
351.716526277
351.498133775
351.266521351
351.019241751
350.766550904
350.540782737
350.35332898
350.200455153
350.085051762
350.008464703
349.972057631
349.972382102
350.001879846
350.084530567
350.24919248
350.518178068
350.921091416
351.437906882
351.99570354
352.411097291
352.68343168
352.832525082
352.894244407
352.905866552
352.884951081
352.823642487
352.707630382
352.531454289
352.298910229
352.000596198
351.651322596
351.264430418
350.918679943
350.638396579
350.424857211
350.275095785
350.179982958
350.134699588
350.142969634
350.186326454
350.286849869
350.483330641
350.780153856
351.177521583
351.491709508
351.664670318
351.730109184
351.736732316
351.698488344
351.611593847
351.473841214
351.250487016
350.946186968
350.57091854
350.236003629
349.994676122
349.830341326
349.726225094
349.692862199
349.702613595
349.753275183
349.868872795
350.079262398
350.325508781
350.478909572
350.53848373
350.546280886
350.508645415
350.408676065
350.247406015
350.035480727
349.80196904
349.59407519
349.452039185
349.38196185
349.376750251
349.388202145
349.424442191
349.493998325
349.595347027
349.682998246
349.739070418
349.76294035
349.76240608
349.729914656
349.65917337
349.577204222
349.533989467
349.523800363
349.537824236
349.574608659
349.638096456
349.717432399
349.793667199
349.856066829
349.901612841
349.906789586
350.078107254
350.231247469
350.373012831
350.516479797
350.661830668
350.81219679
350.965010744
351.116375441
351.263284306
351.40659308
351.546332606
351.682942767
351.817202081
351.947407422
352.071185203
352.191160788
352.308526704
352.416080724
352.51266593
352.605413993
352.692620937
352.76804974
352.833283846
352.892388049
352.940861303
352.973695183
352.991362137
352.996241996
352.993870064
352.985293676
352.968275593
352.941195564
352.901782015
352.846109363
352.773670002
352.683148987
352.576032952
352.453077763
352.318078529
352.17316699
352.023371656
351.875897867
351.729136835
351.578106784
351.42400677
351.266586629
351.102987299
350.933914805
350.761822931
350.586819301
350.409598368
350.23068457
350.052723713
349.884672179
349.73012105
349.594516202
349.478529148
349.38226511
349.311284322
349.265076041
349.242297254
349.233753361
349.235511893
349.262593064
349.321898683
349.407085941
349.525642941
349.687292748
349.901732682
350.178238644
350.521692955
350.93642985
351.418642099
351.922833864
352.363974083
352.724461394
353.017347716
353.253382065
353.432777739
353.549810222
353.612174625
353.635880481
353.630741533
353.60770094
353.56586037
353.496035673
353.391505242
353.250830645
353.07643742
352.876101486
352.65874628
352.427163525
352.192506881
351.949781809
351.696686168
351.423280131
351.126052669
350.829631832
350.569598172
350.362042136
350.199447067
350.076818847
349.992641795
349.951614336
349.950983227
349.98387694
350.076015517
350.259016412
350.559196437
351.009748808
351.593650423
352.224225811
352.697712262
353.008287233
353.175569742
353.241136036
353.253993746
353.236461218
353.187370477
353.079842073
352.898780089
352.643642529
352.306885642
351.905867216
351.458071624
351.055747055
350.732871223
350.487705036
350.317630127
350.21494317
350.168330528
350.173891564
350.216189231
350.318654527
350.522626675
350.839033214
351.270575866
351.622595711
351.829513127
351.925425604
351.955408741
351.926739017
351.834759619
351.676725391
351.425381513
351.088844359
350.67062
350.29295427
350.023043454
349.842569771
349.727620047
349.682463554
349.685506633
349.733245848
349.854038952
350.081780526
350.35708822
350.53611383
350.606639038
350.619705354
350.584486883
350.483149435
350.3137752
350.086676628
349.826143634
349.588153946
349.426043559
349.339107737
349.323892633
349.332608926
349.370451852
349.449753515
349.565724611
349.667504017
349.728888751
349.752507354
349.750149194
349.712978836
349.632198711
349.539293944
349.491268904
349.481990753
349.498269186
349.538702565
349.608399843
349.696174941
349.78135281
349.852158017
349.90305953
349.908814076
350.091584453
350.268178794
350.429618516
350.588540164
350.745700248
350.904485693
351.064892284
351.226515868
351.38554718
351.542078356
351.695760628
351.847068104
351.995297228
352.137822014
352.274243085
352.40704824
352.534579531
352.650486564
352.75775516
352.861617336
352.955664863
353.035745042
353.106493085
353.171418282
353.224237511
353.260524329
353.280585481
353.287152267
353.28587515
353.279213847
353.263934668
353.23765341
353.197026171
353.138416522
353.059828969
352.960115053
352.842199214
352.707316243
352.559652196
352.400972028
352.235805643
352.069528227
351.902634802
351.73159137
351.555908902
351.374385476
351.186002729
350.990723335
350.789930182
350.585243936
350.374493312
350.157196425
349.948237482
349.757251617
349.588685789
349.449163382
349.334373525
349.238510875
349.170377529
349.131746687
349.113522967
349.102383474
349.101511969
349.128735878
349.196519165
349.301239981
349.45042485
349.64539156
349.889807077
350.189599206
350.557554985
351.003342236
351.526253288
352.080403384
352.570151273
352.970214523
353.295392984
353.554735545
353.755214722
353.894783214
353.973939212
354.004050364
353.999936593
353.97597104
353.931805675
353.862642143
353.762930653
353.625052065
353.44578043
353.229956697
352.988054012
352.725954519
352.456971529
352.175260853
351.875496473
351.546594048
351.199308301
350.867213174
350.580212563
350.351771804
350.172830161
350.03868854
349.945512786
349.903844393
349.90657464
349.94646505
350.054673244
350.262561927
350.597184743
351.09422647
351.741406422
352.438972115
352.964635425
353.31094388
353.498621015
353.569876555
353.580113308
353.560818967
353.514549725
353.409177187
353.223462843
352.949224385
352.577080051
352.128183798
351.625095604
351.170928512
350.81303565
350.54452478
350.358597758
350.244556614
350.183538028
350.177305882
350.213492446
350.321781651
350.545885846
350.891323185
351.357794789
351.745854567
351.97896068
352.099380755
352.148578066
352.128407575
352.034370238
351.860270209
351.586105175
351.223637636
350.769047961
350.350499243
350.051252637
349.851335801
349.719805196
349.6551987
349.650256519
349.696241855
349.824862292
350.070874241
350.371089971
350.575340857
350.658147846
350.676883876
350.642596186
350.539598069
350.364148071
350.12713495
349.842438066
349.583039873
349.403684727
349.296532283
349.263987378
349.268887936
349.310899755
349.400848722
349.533248139
349.649752822
349.716011523
349.737750488
349.731339351
349.688647583
349.600141906
349.49869911
349.444793232
349.437443718
349.455780775
349.500167974
349.576495173
349.673666304
349.768181441
349.846855807
349.902732334
349.908921751
350.099211593
350.298032249
350.47873304
350.653972687
350.823074861
350.988210076
351.15379382
351.3210735
351.489407204
351.658883777
351.827782015
351.995006774
352.158487675
352.316214137
352.46836313
352.614474331
352.751215077
352.877265479
352.997490066
353.110778837
353.209798654
353.295253858
353.371302864
353.439565111
353.495633261
353.534548277
353.556548055
353.565095161
353.56522082
353.560514696
353.547166632
353.521149251
353.478727193
353.415443176
353.329869508
353.221645853
353.094231272
352.94961389
352.791320745
352.621028621
352.441998682
352.258319436
352.070604843
351.877035741
351.678961187
351.476663475
351.269639839
351.058071691
350.839982406
350.613434119
350.373428192
350.123833948
349.887661007
349.672578218
349.487295734
349.342538318
349.23125402
349.142521343
349.081307264
349.047452025
349.031161069
349.018039162
349.015551652
349.040334236
349.106275004
349.22342698
349.3956401
349.617645171
349.889053463
350.212659161
350.598567953
351.06090385
351.609574745
352.206311461
352.747953942
353.196161405
353.556982475
353.837822593
354.048861977
354.19784674
354.288156415
354.326729744
354.329749501
354.31434315
354.274815109
354.207212997
354.110710872
353.976477881
353.799079915
353.578190094
353.317957508
353.02350071
352.710762639
352.375522531
352.012441637
351.622562939
351.232107563
350.876498745
350.570576075
350.320131799
350.121273998
349.97257595
349.87410692
349.839725003
349.85177394
349.90773332
350.038172984
350.271515325
350.636936915
351.169001636
351.861081187
352.609771397
353.1814217
353.565218233
353.782942622
353.872777812
353.887839428
353.86459116
353.80710972
353.691854694
353.497031423
353.207738051
352.808521665
352.320464654
351.767792987
351.263219011
350.870245448
350.579886832
350.382068532
350.257949362
350.180548225
350.160365266
350.192304417
350.308958791
350.56043013
350.945231301
351.457229785
351.887296512
352.143777321
352.273185977
352.327617237
352.310967372
352.214023977
352.02808561
351.736125014
351.352952798
350.867609079
350.410018726
350.079990818
349.854935468
349.700931026
349.615042554
349.604965617
349.651629318
349.787906783
350.051845946
350.374159442
350.60234687
350.69894246
350.723906525
350.691095638
350.586556461
350.40280541
350.154782468
349.847035894
349.569704195
349.373077728
349.245810094
349.195835336
349.197975471
349.245828132
349.346179045
349.493558678
349.623245947
349.694704647
349.715461592
349.704142403
349.658319805
349.566082685
349.457897381
349.398714946
349.39252221
349.413016277
349.461763909
349.544577854
349.650475297
349.753572629
349.83911099
349.900238743
349.907947136
350.097067633
350.302904111
350.50181199
350.695081108
350.876297748
351.051688225
351.224514329
351.398747894
351.575236815
351.755065886
351.938591475
352.122137421
352.301928586
352.477272287
352.648535933
352.811523025
352.96209251
353.102923849
353.237012531
353.357318567
353.460914055
353.553328164
353.634153359
353.703997232
353.762357827
353.803817945
353.82759652
353.837948379
353.837917857
353.831755873
353.816418772
353.787348048
353.74113627
353.673344075
353.583026835
353.470368584
353.337972246
353.186838357
353.0183826
352.833792056
352.637105983
352.433811585
352.225462292
352.010370863
351.790499416
351.568565642
351.343692653
351.11764145
350.886170481
350.643464026
350.387452987
350.124068852
349.866620604
349.62879549
349.423128393
349.264527586
349.150692301
349.069683224
349.017949153
348.989377576
348.976109368
348.966166784
348.965388399
348.986889281
349.050469207
349.172934728
349.356607278
349.593759725
349.885511344
350.231760638
350.638585967
351.119121517
351.687257551
352.315401233
352.901242722
353.394579985
353.791934401
354.095437994
354.317893
354.471962463
354.56735514
354.616206617
354.635172299
354.632166828
354.601904288
354.533543645
354.4305606
354.29112779
354.111341361
353.887189949
353.615239996
353.293743808
352.937666613
352.549238457
352.125409073
351.680498596
351.251948661
350.872060597
350.547656787
350.279401213
350.06429546
349.905349064
349.809484463
349.78571419
349.808427181
349.883833315
350.03423152
350.288164695
350.678303578
351.233506776
351.953757773
352.740271409
353.350519266
353.767436149
354.01595484
354.133750428
354.165849158
354.144066587
354.073966139
353.943468276
353.735647676
353.432243858
353.012951649
352.491385668
351.895091549
351.342139458
350.911241858
350.594638372
350.384273764
350.254924909
350.165630811
350.133930773
350.165524029
350.292529708
350.572141538
351.003509041
351.56656695
352.040364302
352.319227907
352.45373647
352.502693363
352.47955405
352.375113899
352.179186599
351.875039031
351.476271443
350.964285956
350.468300744
350.106076731
349.853818122
349.673389672
349.568795677
349.55750456
349.607140444
349.749773776
350.02879224
350.371014688
350.619592098
350.731319386
350.7641886
350.734159058
350.6273589
350.434758241
350.17099589
349.842784483
349.545912817
349.331941186
349.184897951
349.118564869
349.121904459
349.177906224
349.289008088
349.447679164
349.586577444
349.663100822
349.684764829
349.671798343
349.626370359
349.532992044
349.420085929
349.357027101
349.350910297
349.373688344
349.426942618
349.515840844
349.629268668
349.739497136
349.830177808
349.896248315
349.907079949
350.090989913
350.292210712
350.495181628
350.704095576
350.905108272
351.095355819
351.279841351
351.463686504
351.649557836
351.838598047
352.033082888
352.231353435
352.428172315
352.622177161
352.811892218
352.991750189
353.160634471
353.320961896
353.468801048
353.596826703
353.708543993