/*--------------------------------*- C++ -*----------------------------------*\
  =========                 |
  \\      /  F ield         | OpenFOAM: The Open Source CFD Toolbox
   \\    /   O peration     | Website:  https://openfoam.org
    \\  /    A nd           | Version:  8
     \\/     M anipulation  |
\*---------------------------------------------------------------------------*/
FoamFile
{
    version     2.0;
    format      ascii;
    class       volVectorField;
    location    "0.000664";
    object      U;
}
// * * * * * * * * * * * * * * * * * * * * * * * * * * * * * * * * * * * * * //

dimensions      [0 1 -1 0 0 0 0];

internalField   nonuniform List<vector> 
22800
(
(426.993448687 -0.371467985927 0)
(426.936149539 -0.66549647077 0)
(426.898680602 -0.786998255832 0)
(426.81468722 -0.778053813469 0)
(426.768257843 -0.658534541453 0)
(426.717104313 -0.423717882893 0)
(426.66680707 -0.0507928181318 0)
(426.594782458 0.472330496077 0)
(426.537941534 1.14479180768 0)
(426.471006527 1.95071388573 0)
(426.417490713 2.8758745288 0)
(426.341493657 3.90439039112 0)
(426.273965419 5.03850150024 0)
(426.208046425 6.28708517015 0)
(426.128949738 7.66721802308 0)
(426.048081538 9.19310158429 0)
(425.960398337 10.8618113405 0)
(425.903027849 12.6636385032 0)
(425.845989124 14.5868585986 0)
(425.814397259 16.6198899177 0)
(425.759944935 18.7484269674 0)
(425.752464315 20.9648762206 0)
(425.733527272 23.2719384847 0)
(425.744403973 25.6816403604 0)
(425.73576106 28.2048795572 0)
(425.765661978 30.8502357494 0)
(425.782459391 33.6238917339 0)
(425.833936392 36.5293428607 0)
(425.879469955 39.5511691462 0)
(425.945179646 42.6023306042 0)
(425.985014309 45.5875555442 0)
(426.055479586 48.5135532166 0)
(426.101463833 51.3868421173 0)
(426.172426789 54.2030256191 0)
(426.235505931 56.9450405366 0)
(426.324597533 59.5729257753 0)
(426.412534108 62.0248165261 0)
(426.505942559 64.2321868761 0)
(426.604861103 66.1171449008 0)
(426.700656823 67.6231367915 0)
(426.798558478 68.726563571 0)
(426.908163889 69.440542708 0)
(426.965935502 69.8245902149 0)
(427.06513783 69.9361182026 0)
(427.172027377 69.8474533199 0)
(427.254319983 69.6007348124 0)
(427.350522761 69.1772248575 0)
(427.437059981 68.5295894714 0)
(427.516551376 67.6115826342 0)
(427.587102987 66.3843824664 0)
(427.653619707 64.8196980921 0)
(427.700302578 62.8909906623 0)
(427.748609115 60.5743968601 0)
(427.76369675 57.8511085506 0)
(427.753772221 54.7083843642 0)
(427.764269704 51.1362606547 0)
(427.817374886 47.1503397008 0)
(427.836453855 42.7863003581 0)
(427.842702707 38.0554659001 0)
(427.829608782 32.9413981378 0)
(427.824990209 27.4320616474 0)
(427.795641877 21.5570669268 0)
(427.765301353 15.6112456178 0)
(427.657260219 10.0581645092 0)
(427.556189475 4.99808377022 0)
(427.444143912 0.493395565812 0)
(427.338667919 -3.40873016947 0)
(427.236687086 -6.70548860616 0)
(427.134303883 -9.4028209925 0)
(427.02337067 -11.515913901 0)
(426.907652979 -13.0795957436 0)
(426.775910189 -14.1395710998 0)
(426.6943225 -14.7713108502 0)
(426.510289344 -14.9979811478 0)
(426.36082273 -14.8436840334 0)
(426.313140488 -14.4077974079 0)
(426.279412348 -13.6462773856 0)
(426.266387441 -12.4026148857 0)
(426.243265916 -10.5166819998 0)
(426.221328382 -7.87451433426 0)
(426.176369547 -4.4135247881 0)
(426.143031142 -0.107725508434 0)
(426.128523208 5.04356101345 0)
(426.154362938 11.0524851719 0)
(426.158506013 17.7298584597 0)
(426.197976724 24.2469469226 0)
(426.202121307 29.7974406284 0)
(426.262852179 34.2893162905 0)
(426.405028949 37.6327930975 0)
(426.578510042 39.8704309315 0)
(426.70165555 41.1872461682 0)
(426.793177427 41.7911078058 0)
(426.989433608 41.8867346131 0)
(427.119284553 41.6145160065 0)
(427.292150506 40.9994818454 0)
(427.484754492 39.9313733238 0)
(427.669053804 38.2613666524 0)
(427.752796561 35.8268391827 0)
(427.840755722 32.4540024946 0)
(427.935966793 28.0040365617 0)
(428.054787372 22.3642445949 0)
(428.111320696 15.4061896822 0)
(428.127256995 6.94820882624 0)
(428.174243409 -2.52191178499 0)
(428.112704652 -11.2223107208 0)
(428.088521966 -18.1566005281 0)
(428.026671148 -23.4066297537 0)
(427.956273975 -27.1087181483 0)
(427.870835786 -29.460066991 0)
(427.850306035 -30.7180848701 0)
(427.710673834 -31.1365949208 0)
(427.637491103 -30.9538585662 0)
(427.576761491 -30.1958776954 0)
(427.504103964 -28.6140366118 0)
(427.482217381 -25.8199078054 0)
(427.532390487 -21.3804841775 0)
(427.55222139 -14.9625085116 0)
(427.560869618 -6.64863946415 0)
(427.621026179 1.77631149857 0)
(427.623849666 7.90793547621 0)
(427.640197494 11.8415166073 0)
(427.669973 13.9792218304 0)
(427.67478048 14.8652407513 0)
(427.847783501 15.0210247824 0)
(427.915072655 14.7149363591 0)
(427.93722498 13.7953424168 0)
(427.96713424 11.8408867949 0)
(428.01766438 8.47968600771 0)
(428.086217717 3.45427184508 0)
(428.103556277 -3.44566285487 0)
(428.12576443 -11.97374187 0)
(428.08469439 -20.2340815538 0)
(428.079670635 -26.1520069778 0)
(428.084573357 -29.7946007122 0)
(428.138828524 -31.5409678098 0)
(428.164245912 -31.922251006 0)
(428.21641465 -31.7540747259 0)
(428.319313759 -30.8651588701 0)
(428.347136189 -28.8578329823 0)
(428.337085949 -25.3282516427 0)
(428.267269292 -19.8588494057 0)
(428.259400242 -13.0988409452 0)
(428.260591459 -7.42299035921 0)
(428.279143509 -3.8656193777 0)
(428.281812075 -1.95491439336 0)
(428.284732305 -1.29309649082 0)
(428.36245659 -1.25773694841 0)
(428.293883164 -1.81739862702 0)
(428.288040037 -3.55453822359 0)
(428.343228891 -6.98659222365 0)
(428.387387841 -12.4469349947 0)
(428.477617889 -19.0216154802 0)
(428.501422851 -24.098910192 0)
(428.499063587 -26.843342745 0)
(428.552962283 -27.8020137635 0)
(428.604322895 -27.8745408094 0)
(428.74552781 -27.42410927 0)
(428.825820374 -26.0872428158 0)
(428.851055443 -23.5951760635 0)
(428.781797644 -19.7941792281 0)
(428.76453569 -15.4165725932 0)
(428.754521948 -12.1218294711 0)
(428.730001107 -10.1115465154 0)
(428.702295018 -9.13420763881 0)
(428.713477552 -8.85702609837 0)
(428.701455424 -9.030364911 0)
(428.72720788 -9.98481541986 0)
(428.790425694 -12.1407935554 0)
(428.918076284 -14.8671993725 0)
(429.054558027 -16.5403467238 0)
(429.165632789 -17.1234000673 0)
(429.243095947 -17.1529760036 0)
(429.324133744 -16.8685875558 0)
(429.414182658 -16.068062124 0)
(429.507933985 -14.6467642204 0)
(429.568548988 -12.6596717376 0)
(429.619787286 -10.6440313204 0)
(429.669149619 -9.26045179157 0)
(429.716790437 -8.44906835063 0)
(429.777656884 -8.059846327 0)
(429.792563858 -7.88314133024 0)
(429.859507341 -7.83639263936 0)
(429.898143412 -7.76983443223 0)
(429.928446298 -7.60877750994 0)
(429.938025792 -7.23575739069 0)
(429.955800306 -6.49906962222 0)
(429.946606731 -5.27571438591 0)
(429.937379951 -3.43257867876 0)
(429.916478496 -1.30135380479 0)
(429.849495307 -0.0150930575055 0)
(426.979054529 -0.214899943305 0)
(426.892120631 -0.454720241432 0)
(426.841633241 -0.581719775157 0)
(426.749068951 -0.578653552805 0)
(426.664169701 -0.471874769252 0)
(426.566949797 -0.251164471375 0)
(426.462405362 0.100931980758 0)
(426.358499823 0.592394605865 0)
(426.248638075 1.226359981 0)
(426.136424094 1.99409989556 0)
(426.033548586 2.87987850775 0)
(425.927813516 3.8762466473 0)
(425.816300009 4.98817852362 0)
(425.72823461 6.22895994667 0)
(425.622136167 7.60699727398 0)
(425.510414326 9.12977008015 0)
(425.390508291 10.7898541882 0)
(425.31195912 12.5737095739 0)
(425.244119825 14.471652953 0)
(425.214654887 16.4796152799 0)
(425.168979306 18.5890040195 0)
(425.159070096 20.7936801084 0)
(425.136885873 23.0910006342 0)
(425.155578996 25.4867109053 0)
(425.146680471 27.9904032201 0)
(425.172743755 30.6084615466 0)
(425.180103508 33.3440639316 0)
(425.229023138 36.1962657694 0)
(425.26682642 39.1539739799 0)
(425.341760316 42.1433827332 0)
(425.391088253 45.0780338918 0)
(425.472326603 47.9613911948 0)
(425.525972227 50.7990399503 0)
(425.607116628 53.5812450332 0)
(425.678406694 56.2846983775 0)
(425.781144058 58.8659616923 0)
(425.882810704 61.2705067951 0)
(425.993526365 63.4303850359 0)
(426.102313019 65.2768631112 0)
(426.205685928 66.7576147419 0)
(426.31648332 67.8438790653 0)
(426.434668623 68.5477674293 0)
(426.494019776 68.9282828732 0)
(426.577797828 69.0614530405 0)
(426.683946772 68.979685794 0)
(426.786923764 68.7374898172 0)
(426.902785532 68.3093985606 0)
(427.026077567 67.6539695788 0)
(427.152823807 66.732758459 0)
(427.270954314 65.5130121364 0)
(427.378229026 63.966244877 0)
(427.457002102 62.0626832609 0)
(427.52408344 59.7771073626 0)
(427.566761793 57.0878491673 0)
(427.564479872 53.9825283824 0)
(427.587421476 50.4569207158 0)
(427.658940462 46.5206380901 0)
(427.681850056 42.2022702001 0)
(427.6617772 37.5291645856 0)
(427.600845783 32.5159301766 0)
(427.536368309 27.1643689476 0)
(427.448953027 21.4818702069 0)
(427.30579717 15.7125893926 0)
(427.159834895 10.3037509177 0)
(426.975950697 5.3617798948 0)
(426.850341131 0.95985834605 0)
(426.725939871 -2.8839790904 0)
(426.607668738 -6.15309132218 0)
(426.478786463 -8.85450178718 0)
(426.336959812 -11.0018478722 0)
(426.19526093 -12.6106062818 0)
(426.058288659 -13.7074138901 0)
(425.964885391 -14.3507020779 0)
(425.819827496 -14.5782053944 0)
(425.681865195 -14.4532555102 0)
(425.56967852 -14.0586842486 0)
(425.472241556 -13.3005714582 0)
(425.395530244 -12.0646709329 0)
(425.320591575 -10.2249635367 0)
(425.249840429 -7.65610986862 0)
(425.148736434 -4.27487717383 0)
(425.067863652 -0.0467911687834 0)
(425.03005211 5.03374083686 0)
(425.049074771 10.982337479 0)
(425.084651033 17.6238908796 0)
(425.185797606 24.1421913054 0)
(425.279410006 29.6791865557 0)
(425.443228357 34.1120612212 0)
(425.635934913 37.420054352 0)
(425.868443479 39.6491093362 0)
(426.02008111 40.9659973691 0)
(426.129458515 41.5846365455 0)
(426.358284389 41.6953318395 0)
(426.50895931 41.412305181 0)
(426.718814234 40.769118222 0)
(426.957172521 39.6425952404 0)
(427.211901831 37.9049248355 0)
(427.352402142 35.4251698442 0)
(427.435498861 32.0789214887 0)
(427.508261235 27.7124775932 0)
(427.625407345 22.1718089607 0)
(427.733455823 15.3134365574 0)
(427.709876581 7.00235427274 0)
(427.63163476 -2.26087542768 0)
(427.473530864 -10.8118401926 0)
(427.356728998 -17.6862131974 0)
(427.219894674 -22.9322345181 0)
(427.112492898 -26.644047904 0)
(427.025959889 -28.9857712108 0)
(427.033285533 -30.2174541846 0)
(426.907070704 -30.6450478134 0)
(426.815490022 -30.446374777 0)
(426.746535574 -29.6889650139 0)
(426.67859132 -28.113899527 0)
(426.652309729 -25.3261665351 0)
(426.675920465 -20.9133031798 0)
(426.703671124 -14.5619436966 0)
(426.726685349 -6.40732170599 0)
(426.794460208 1.85822789327 0)
(426.815217668 7.93202048376 0)
(426.852168259 11.8935901806 0)
(426.934401239 14.1330272103 0)
(426.991056205 15.1439175696 0)
(427.262441566 15.3382055955 0)
(427.402926171 14.9778190864 0)
(427.466678245 13.9758873522 0)
(427.517838119 11.9503017142 0)
(427.592643682 8.55777126997 0)
(427.671563632 3.54533622834 0)
(427.716335084 -3.32004968409 0)
(427.734217122 -11.7861133271 0)
(427.730928279 -19.9658824343 0)
(427.734704014 -25.806006368 0)
(427.76956926 -29.3627227283 0)
(427.861889317 -31.0284889897 0)
(427.920666974 -31.4442299148 0)
(427.971975311 -31.2500358736 0)
(428.05420436 -30.3532739976 0)
(428.064069117 -28.3780591107 0)
(428.084445528 -24.9066684672 0)
(428.034584132 -19.5122658947 0)
(428.046964418 -12.8287697709 0)
(428.12056738 -7.19839940751 0)
(428.178942901 -3.66749188031 0)
(428.190928552 -1.78236413932 0)
(428.146976154 -1.04775248194 0)
(428.195452353 -1.00319043179 0)
(428.16381987 -1.60686592455 0)
(428.241119826 -3.42664260803 0)
(428.351666329 -6.9436885527 0)
(428.43662267 -12.4596990691 0)
(428.563947477 -19.0003105061 0)
(428.600283006 -23.9444192163 0)
(428.620441987 -26.586130868 0)
(428.70446645 -27.4896478719 0)
(428.765690679 -27.53231316 0)
(428.917502728 -27.0418926645 0)
(428.984708565 -25.7001800935 0)
(428.990176452 -23.2381151205 0)
(428.904899839 -19.4842960976 0)
(428.80701919 -15.1558644268 0)
(428.81671236 -11.9101565378 0)
(428.788769313 -9.95380946733 0)
(428.753536631 -9.00512159881 0)
(428.776252151 -8.72788265668 0)
(428.772508095 -8.94625814629 0)
(428.803525852 -9.94539278964 0)
(428.92665623 -12.1412635127 0)
(429.068185396 -14.928223751 0)
(429.173418211 -16.6760579612 0)
(429.263738982 -17.302567779 0)
(429.337246561 -17.3394144496 0)
(429.430779188 -17.0359768821 0)
(429.540208908 -16.1973927742 0)
(429.64915007 -14.7257296705 0)
(429.728837616 -12.6776985349 0)
(429.812038915 -10.605046384 0)
(429.870825172 -9.20194372914 0)
(429.866793249 -8.40058686776 0)
(429.877356676 -8.0140249153 0)
(429.888961669 -7.8751099304 0)
(429.954246371 -7.8585431408 0)
(429.996732385 -7.79604501018 0)
(430.019017151 -7.63935395465 0)
(430.023741977 -7.26744104935 0)
(430.042493941 -6.53126541267 0)
(430.041272151 -5.30870866339 0)
(430.002693493 -3.45046674621 0)
(429.977827432 -1.29755820325 0)
(429.856927588 -0.0053558600309 0)
(426.959154688 -0.29854142764 0)
(426.779365264 -0.571586239656 0)
(426.662031993 -0.737853061269 0)
(426.501829993 -0.778932277277 0)
(426.351267363 -0.701076634166 0)
(426.198639371 -0.517449414101 0)
(426.045102752 -0.217941449662 0)
(425.903386883 0.210331352816 0)
(425.757586415 0.767886025562 0)
(425.628364873 1.45836018896 0)
(425.508013791 2.28194660502 0)
(425.384065106 3.24744729217 0)
(425.240352006 4.36061605432 0)
(425.12980418 5.61632274435 0)
(424.997460142 6.99777514836 0)
(424.856707044 8.50326612147 0)
(424.694810647 10.1276357169 0)
(424.593005917 11.8678482928 0)
(424.50524993 13.7201590229 0)
(424.463910646 15.6903600731 0)
(424.39787977 17.77509358 0)
(424.361328432 19.9713339797 0)
(424.311242863 22.275119723 0)
(424.30261564 24.6871722832 0)
(424.278853296 27.2051280421 0)
(424.273539129 29.8271651276 0)
(424.257112635 32.5511822191 0)
(424.284290527 35.3756035772 0)
(424.304243525 38.2995808901 0)
(424.371159483 41.2710202224 0)
(424.413181788 44.2031250013 0)
(424.495646452 47.0856876641 0)
(424.544976687 49.9206605727 0)
(424.624308071 52.6934595973 0)
(424.68792288 55.379326078 0)
(424.790197244 57.9341289495 0)
(424.893823993 60.3049449096 0)
(425.010879152 62.4276715251 0)
(425.122738833 64.2424743308 0)
(425.239590501 65.7054763523 0)
(425.370390071 66.789460786 0)
(425.510661435 67.5019339989 0)
(425.582249556 67.9020772077 0)
(425.688720817 68.0476441991 0)
(425.813382527 67.960891414 0)
(425.936047356 67.7061963266 0)
(426.071786225 67.2629983621 0)
(426.220891826 66.5912025938 0)
(426.37624707 65.6500857332 0)
(426.532496041 64.4095045083 0)
(426.683633152 62.8463370958 0)
(426.802497143 60.9370145367 0)
(426.921796054 58.6579855275 0)
(427.009777831 55.9874127 0)
(427.023067053 52.9194680608 0)
(427.054489482 49.4463313635 0)
(427.138721984 45.5674093899 0)
(427.164593977 41.3083483586 0)
(427.124633913 36.7071282167 0)
(427.058473987 31.782331555 0)
(426.984868251 26.5451887806 0)
(426.930644359 21.0075460413 0)
(426.795321645 15.3889013743 0)
(426.673291424 10.0978354062 0)
(426.445809052 5.25155823864 0)
(426.287832919 0.907584142487 0)
(426.10482574 -2.90662483845 0)
(425.931106728 -6.17638524169 0)
(425.758407206 -8.90364684734 0)
(425.574757743 -11.0989475234 0)
(425.403899094 -12.7669986017 0)
(425.26549441 -13.9117770156 0)
(425.201003637 -14.5847661004 0)
(425.074677315 -14.8267298536 0)
(424.955638966 -14.6822699038 0)
(424.828665535 -14.2452773551 0)
(424.670813227 -13.4471653395 0)
(424.51444971 -12.1895767676 0)
(424.36467224 -10.3638494925 0)
(424.235953172 -7.85361386792 0)
(424.117893211 -4.56057033768 0)
(424.035551964 -0.418567363558 0)
(423.99587419 4.59409533462 0)
(424.015213955 10.4861991712 0)
(424.069815955 17.0913756192 0)
(424.202578702 23.5962042469 0)
(424.359761922 29.1106143281 0)
(424.567411736 33.5299354355 0)
(424.772992311 36.8452438345 0)
(425.013540256 39.0895156931 0)
(425.189537802 40.4284904409 0)
(425.334354599 41.0728027016 0)
(425.59953673 41.1776876322 0)
(425.768695301 40.8705776869 0)
(426.008730169 40.1926692798 0)
(426.278899749 39.0250784026 0)
(426.581711385 37.2562983112 0)
(426.808816782 34.763966262 0)
(426.940234983 31.4430130897 0)
(427.038577203 27.1393998442 0)
(427.137030641 21.6605926461 0)
(427.273760903 14.8551867972 0)
(427.252473425 6.63512507327 0)
(427.15549733 -2.4816553267 0)
(426.970222963 -10.8963959272 0)
(426.796883693 -17.675098765 0)
(426.597819194 -22.8643104298 0)
(426.449098014 -26.5635041201 0)
(426.343505076 -28.9207810419 0)
(426.366385755 -30.1639841028 0)
(426.24867591 -30.5633921646 0)
(426.156553804 -30.3397293258 0)
(426.086894275 -29.5535068842 0)
(426.019018686 -27.9431020343 0)
(425.999175478 -25.1247053 0)
(426.030987645 -20.7207543075 0)
(425.993705432 -14.455286629 0)
(426.003096752 -6.42195257912 0)
(426.071572986 1.75567595257 0)
(426.149402508 7.79525576504 0)
(426.246901211 11.7796224314 0)
(426.38703898 14.0731861647 0)
(426.492331752 15.1548981381 0)
(426.808744537 15.3978573094 0)
(426.996220889 15.0219807125 0)
(427.091656017 14.0011208175 0)
(427.173920104 11.9770961547 0)
(427.276925137 8.60428090815 0)
(427.387748127 3.60262697109 0)
(427.440137376 -3.25280768483 0)
(427.485322655 -11.6502827296 0)
(427.508872101 -19.7689003076 0)
(427.535071357 -25.6083794457 0)
(427.611657006 -29.1877822525 0)
(427.746599755 -30.8612595571 0)
(427.840443627 -31.2846601505 0)
(427.890620235 -31.0733015929 0)
(427.958679634 -30.1353752405 0)
(427.951748955 -28.1272081043 0)
(427.981791184 -24.6414909037 0)
(427.939269687 -19.2569868991 0)
(427.968427653 -12.5900753963 0)
(428.074119898 -6.95978799287 0)
(428.146525872 -3.43199288996 0)
(428.146618435 -1.55498788649 0)
(428.114670168 -0.836177214866 0)
(428.163636027 -0.807973186355 0)
(428.14914766 -1.41293825438 0)
(428.256344989 -3.22002739959 0)
(428.373692569 -6.71956034347 0)
(428.53139574 -12.2145207886 0)
(428.691985375 -18.7386288336 0)
(428.782823345 -23.6743796896 0)
(428.863588391 -26.2749549931 0)
(428.979743215 -27.1340861718 0)
(429.026000954 -27.1354295614 0)
(429.180557831 -26.6008419573 0)
(429.257182523 -25.2401362515 0)
(429.278098561 -22.7841024346 0)
(429.19870269 -19.0538054542 0)
(429.046405754 -14.7684889904 0)
(429.032576509 -11.5883836614 0)
(428.988488233 -9.69857795671 0)
(428.93330873 -8.78901862309 0)
(428.961148667 -8.52433953946 0)
(428.960863677 -8.74968881643 0)
(428.981062008 -9.75983241491 0)
(429.136847869 -11.9654653994 0)
(429.279038075 -14.7996009151 0)
(429.379644913 -16.6220127519 0)
(429.471239885 -17.2590082592 0)
(429.561259523 -17.2498299617 0)
(429.677423182 -16.8950612606 0)
(429.814323736 -15.9950081469 0)
(429.929152898 -14.4519178 0)
(429.997678522 -12.3611094983 0)
(430.057796622 -10.3143108126 0)
(430.075313155 -8.99027523317 0)
(430.047381309 -8.24157335935 0)
(430.052632761 -7.87956845323 0)
(430.056377064 -7.75036021871 0)
(430.111495754 -7.72938701878 0)
(430.163951208 -7.66858912194 0)
(430.192554105 -7.51357145375 0)
(430.19607009 -7.14532035057 0)
(430.215345604 -6.41806922571 0)
(430.222096772 -5.2061726628 0)
(430.127803858 -3.37759739446 0)
(430.122727727 -1.25887521326 0)
(429.923359034 0.0230193418745 0)
(426.932677907 -0.276029651522 0)
(426.640083623 -0.549908503007 0)
(426.430454389 -0.750577768451 0)
(426.183492192 -0.836905253962 0)
(425.942110585 -0.788945365801 0)
(425.716377765 -0.625115383849 0)
(425.500317499 -0.360934366064 0)
(425.293004907 0.00627666411541 0)
(425.076170598 0.487832483782 0)
(424.884330145 1.10846790337 0)
(424.704588211 1.87042172976 0)
(424.517515044 2.78581360462 0)
(424.316355127 3.86170492606 0)
(424.174228595 5.0893419329 0)
(424.015087608 6.44678906254 0)
(423.845062881 7.94085055292 0)
(423.639822648 9.56276531161 0)
(423.511759872 11.2959157764 0)
(423.392321277 13.131054464 0)
(423.316248883 15.0880495302 0)
(423.200926187 17.1704042383 0)
(423.125439325 19.3776399379 0)
(423.031669413 21.7001969488 0)
(422.984747762 24.1299128025 0)
(422.935328968 26.6486470979 0)
(422.898742416 29.2463998438 0)
(422.854469145 31.9196796193 0)
(422.85675812 34.6691425706 0)
(422.852845638 37.4930856606 0)
(422.91137114 40.3496832883 0)
(422.950270698 43.1766740641 0)
(423.049377446 45.9656894605 0)
(423.116261323 48.716793186 0)
(423.230091873 51.4176911036 0)
(423.32844244 54.0437308312 0)
(423.475719234 56.5425074471 0)
(423.621110275 58.8619522405 0)
(423.786875586 60.9432363869 0)
(423.936228773 62.7327839169 0)
(424.103791856 64.1911716304 0)
(424.264765062 65.3030080788 0)
(424.453854853 66.0665593667 0)
(424.564572726 66.5346320091 0)
(424.700915169 66.7444406477 0)
(424.86762283 66.6963250614 0)
(425.013328681 66.460576016 0)
(425.162748805 66.0216056333 0)
(425.334474198 65.3461599463 0)
(425.514145951 64.3990754461 0)
(425.71168757 63.1548623155 0)
(425.918456951 61.5901572404 0)
(426.110107631 59.6829969017 0)
(426.313201848 57.4116288323 0)
(426.51848301 54.7536253763 0)
(426.615460174 51.7103218082 0)
(426.701102887 48.2884060257 0)
(426.81767504 44.4805079908 0)
(426.886591496 40.2989574325 0)
(426.8434364 35.7800287798 0)
(426.808933816 30.9539885765 0)
(426.748608161 25.8280361486 0)
(426.710739889 20.4234195597 0)
(426.535051377 14.9621148946 0)
(426.396700559 9.80816932478 0)
(426.115977123 5.06403342787 0)
(425.852784969 0.782911814725 0)
(425.550894406 -2.99721339557 0)
(425.281082562 -6.24844630186 0)
(425.005582446 -8.9503391924 0)
(424.75317438 -11.1064237068 0)
(424.512243359 -12.7536064126 0)
(424.319953691 -13.9162648383 0)
(424.234363361 -14.6603746447 0)
(424.122857625 -15.0029967064 0)
(423.984495244 -14.9268328555 0)
(423.865596248 -14.5206374968 0)
(423.685536324 -13.7167632313 0)
(423.460273357 -12.4138208161 0)
(423.21137026 -10.5361729959 0)
(423.003113612 -8.0185432099 0)
(422.862997215 -4.78286929446 0)
(422.749987265 -0.739008561644 0)
(422.723236245 4.15766138392 0)
(422.742033389 9.9276495243 0)
(422.825790655 16.4267291637 0)
(422.979528317 22.8678057807 0)
(423.184633944 28.3381724825 0)
(423.435880183 32.7352356316 0)
(423.690650447 36.0439706724 0)
(423.949246672 38.30827241 0)
(424.17404175 39.6882281284 0)
(424.368642855 40.3864342653 0)
(424.679656332 40.5102026168 0)
(424.885249646 40.2019787866 0)
(425.159837574 39.5359088188 0)
(425.454905962 38.3763377766 0)
(425.807348997 36.6051885833 0)
(426.192246813 34.102634513 0)
(426.46218167 30.7890012811 0)
(426.64718524 26.5668796716 0)
(426.780309956 21.264076827 0)
(426.996707233 14.7002199644 0)
(426.992841157 6.7132869546 0)
(426.827124869 -2.23559462516 0)
(426.560204195 -10.5665185364 0)
(426.282064582 -17.2990636246 0)
(425.990275679 -22.4868904007 0)
(425.806168661 -26.2258964846 0)
(425.705220781 -28.6660096351 0)
(425.754519409 -30.041002669 0)
(425.656338266 -30.5623729663 0)
(425.562704453 -30.326258156 0)
(425.501763768 -29.4697615313 0)
(425.416691984 -27.7793363269 0)
(425.374142733 -24.9069969089 0)
(425.363581084 -20.5207082068 0)
(425.289128359 -14.3478587856 0)
(425.332340461 -6.44936824357 0)
(425.45316905 1.61235953385 0)
(425.618948643 7.62021655719 0)
(425.776001299 11.643942432 0)
(425.918907741 14.0109963945 0)
(426.034320164 15.1508846511 0)
(426.375815345 15.396950788 0)
(426.576338389 14.9560275403 0)
(426.704526393 13.8359085417 0)
(426.835754165 11.763304571 0)
(426.99866246 8.45416627753 0)
(427.169349222 3.62608376397 0)
(427.234283796 -2.98493746152 0)
(427.243418189 -11.1854817253 0)
(427.265545108 -19.2478259944 0)
(427.295182529 -25.1049574221 0)
(427.408185398 -28.7810748505 0)
(427.581554284 -30.6267141295 0)
(427.726598997 -31.1737677832 0)
(427.777732052 -31.006071374 0)
(427.84750145 -30.0508469134 0)
(427.826612228 -27.9559132958 0)
(427.867726302 -24.3544163002 0)
(427.843173362 -18.877981845 0)
(427.884708391 -12.1806010401 0)
(428.031340508 -6.57217042436 0)
(428.103928184 -3.07247577561 0)
(428.100854711 -1.22659076106 0)
(428.087426834 -0.525895246206 0)
(428.159773853 -0.509456626942 0)
(428.169852135 -1.12780562015 0)
(428.300698482 -2.93492278066 0)
(428.425028456 -6.40102210985 0)
(428.633690024 -11.8573826694 0)
(428.836230729 -18.3563597078 0)
(428.975440864 -23.2993223042 0)
(429.104581489 -25.9243312 0)
(429.262245782 -26.8099735101 0)
(429.284653126 -26.8136947269 0)
(429.439998638 -26.2641062352 0)
(429.523297904 -24.8757525995 0)
(429.568611794 -22.3854621121 0)
(429.511856703 -18.6191322479 0)
(429.354649904 -14.3249610303 0)
(429.312240207 -11.1641304882 0)
(429.256695938 -9.30414650491 0)
(429.15913163 -8.43851185355 0)
(429.157027121 -8.19680930452 0)
(429.159332164 -8.41422843587 0)
(429.181809594 -9.4388863044 0)
(429.356338654 -11.7135140111 0)
(429.554180495 -14.6288780524 0)
(429.680840444 -16.5174046945 0)
(429.804720499 -17.1889706756 0)
(429.960587926 -17.1559720296 0)
(430.121685829 -16.7554380296 0)
(430.296244038 -15.818479157 0)
(430.427680198 -14.2854898198 0)
(430.491737349 -12.2109057347 0)
(430.528874251 -10.188795133 0)
(430.471999523 -8.88841551272 0)
(430.418119949 -8.16297100427 0)
(430.396646518 -7.82080669323 0)
(430.393395927 -7.70380337385 0)
(430.448278483 -7.67803217044 0)
(430.509208304 -7.6092191189 0)
(430.542895006 -7.44804979088 0)
(430.546437936 -7.08077802012 0)
(430.561732921 -6.36094701521 0)
(430.567670466 -5.15574842945 0)
(430.407541019 -3.32278473936 0)
(430.411046583 -1.20790648978 0)
(430.119950462 0.0509269524959 0)
(426.883762257 -0.241697122106 0)
(426.510357656 -0.473247884544 0)
(426.230940371 -0.689475096131 0)
(425.92381462 -0.819580281101 0)
(425.61808771 -0.843459059444 0)
(425.320146868 -0.739882713427 0)
(425.032675308 -0.524722105576 0)
(424.752153266 -0.195349708551 0)
(424.46312237 0.255829753329 0)
(424.198625355 0.851167116331 0)
(423.934293925 1.58011469192 0)
(423.656050126 2.45599490821 0)
(423.372038401 3.4874917404 0)
(423.175097468 4.6674145391 0)
(422.964235291 5.96867820769 0)
(422.751933732 7.38809811458 0)
(422.530480248 8.91979001168 0)
(422.413893094 10.5679616026 0)
(422.279178841 12.3354567565 0)
(422.172907048 14.2372822535 0)
(422.012707102 16.2691593902 0)
(421.928501913 18.4363127864 0)
(421.791173453 20.7295949883 0)
(421.716064596 23.1371267776 0)
(421.622275252 25.6256742702 0)
(421.5731728 28.1812976084 0)
(421.477401063 30.7994454228 0)
(421.454217509 33.48542921 0)
(421.398915806 36.2282635923 0)
(421.427528241 38.9905376397 0)
(421.421789799 41.7380039581 0)
(421.50693536 44.4653353744 0)
(421.565887765 47.170154539 0)
(421.700193023 49.8277777991 0)
(421.804030394 52.4079337079 0)
(421.965113111 54.8561257677 0)
(422.111537114 57.1302447357 0)
(422.31467398 59.1730832127 0)
(422.495015462 60.94538638 0)
(422.717833286 62.4080948986 0)
(422.91744631 63.5515840159 0)
(423.17005782 64.3571656455 0)
(423.360886817 64.877866749 0)
(423.57769114 65.1328493648 0)
(423.825480056 65.0871195211 0)
(424.029564621 64.8276962089 0)
(424.230763553 64.3679912555 0)
(424.442401756 63.6811669792 0)
(424.662341138 62.7347013032 0)
(424.906683576 61.4998849071 0)
(425.171090428 59.9481471063 0)
(425.435678999 58.0573645441 0)
(425.714723138 55.8099084413 0)
(426.022980572 53.1819675145 0)
(426.229174727 50.1629677321 0)
(426.402415994 46.7799802738 0)
(426.57058955 43.036135106 0)
(426.688749279 38.9392847334 0)
(426.689221684 34.5150564002 0)
(426.697873103 29.7985581505 0)
(426.685590999 24.790494861 0)
(426.691452213 19.5216281232 0)
(426.485045024 14.2284278154 0)
(426.304814621 9.23639026889 0)
(425.958032701 4.61960090083 0)
(425.56904936 0.432354730082 0)
(425.14926725 -3.26324759403 0)
(424.778134885 -6.43473426186 0)
(424.398622603 -9.08359062289 0)
(424.060648154 -11.2430624828 0)
(423.745333526 -12.9109783066 0)
(423.444698464 -14.1212181967 0)
(423.229376196 -14.9192108079 0)
(423.033065939 -15.2896925827 0)
(422.827895082 -15.1894378089 0)
(422.674004724 -14.7415978282 0)
(422.466324643 -13.9216038233 0)
(422.197472142 -12.6171179394 0)
(421.850131104 -10.7432057471 0)
(421.530841066 -8.24156161651 0)
(421.34767197 -5.05688046557 0)
(421.190654203 -1.11438596199 0)
(421.153855961 3.64572293909 0)
(421.177102557 9.26762184106 0)
(421.296110071 15.6300786161 0)
(421.469447207 21.9718766275 0)
(421.715484359 27.368468853 0)
(422.014238154 31.7204372433 0)
(422.336963919 35.013485154 0)
(422.6477304 37.3117052149 0)
(422.972092782 38.763844424 0)
(423.230167688 39.5745157021 0)
(423.599526778 39.8006632828 0)
(423.889463834 39.5323007562 0)
(424.226041534 38.8806712716 0)
(424.579680029 37.7191709234 0)
(425.00224283 35.9464649451 0)
(425.490144845 33.4521063303 0)
(425.963942704 30.1298592152 0)
(426.319974018 25.9108337977 0)
(426.546288061 20.6963929613 0)
(426.800367495 14.3066035777 0)
(426.842100345 6.53485749586 0)
(426.671239414 -2.24145806173 0)
(426.365919198 -10.4993539897 0)
(426.014553983 -17.203507257 0)
(425.655972286 -22.3877097889 0)
(425.403558534 -26.1473393501 0)
(425.256749025 -28.61016748 0)
(425.28207535 -29.9762507861 0)
(425.145439254 -30.4761882338 0)
(425.004890048 -30.2288767453 0)
(424.916154774 -29.3514756033 0)
(424.783744804 -27.6298527376 0)
(424.69095913 -24.7215031994 0)
(424.612710763 -20.3352025046 0)
(424.512665316 -14.2377706081 0)
(424.558372757 -6.47080177299 0)
(424.751052307 1.48396219402 0)
(424.99379186 7.45809364509 0)
(425.237121869 11.5136441942 0)
(425.44276863 13.9450171256 0)
(425.566391198 15.1334268877 0)
(425.921973997 15.4056843619 0)
(426.154027229 14.9771796927 0)
(426.351333458 13.8938087831 0)
(426.5554795 11.8780811614 0)
(426.762466183 8.64992091482 0)
(426.968289783 3.93928894475 0)
(427.083188412 -2.51229963018 0)
(427.112942912 -10.579423696 0)
(427.126652461 -18.6335803399 0)
(427.118323721 -24.5483824841 0)
(427.16571606 -28.3339579912 0)
(427.31174447 -30.3291968371 0)
(427.526651089 -31.0438291495 0)
(427.624714913 -30.9685983938 0)
(427.754542775 -30.0421588204 0)
(427.744486721 -27.8691555128 0)
(427.739234952 -24.1138805099 0)
(427.707429453 -18.4851318862 0)
(427.721890826 -11.7144315988 0)
(427.917841357 -6.11559570053 0)
(427.989493972 -2.63101713114 0)
(427.996408787 -0.792329650578 0)
(427.985941091 -0.0895460486019 0)