/*--------------------------------*- C++ -*----------------------------------*\
  =========                 |
  \\      /  F ield         | OpenFOAM: The Open Source CFD Toolbox
   \\    /   O peration     | Website:  https://openfoam.org
    \\  /    A nd           | Version:  8
     \\/     M anipulation  |
\*---------------------------------------------------------------------------*/
FoamFile
{
    version     2.0;
    format      ascii;
    class       volScalarField;
    location    "0.000664";
    object      H2;
}
// * * * * * * * * * * * * * * * * * * * * * * * * * * * * * * * * * * * * * //

dimensions      [0 0 0 0 0 0 0];

internalField   nonuniform List<scalar> 
22800
(
1
1
1
1
1
1
1
1
1
1
1
1
1
1
1
1
1
1
1
1
1
1
1
1
1
1
1
1
1
1
1
1
1
1
1
1
1
1
1
1
1
1
1
1
1
1
1
1
1
1
1
1
1
1
1
1
1
1
1
1
1
1
1
1
1
1
1
1
1
1
1
1
1
1
1
1
1
1
1
1
1
1
1
1
1
1
1
1
1
1
1
1
1
1
1
1
1
1
1
1
1
1
1
1
1
1
1
1
1
1
1
1
1
1
1
1
1
1
1
1
1
1
1
1
1
1
1
1
1
1
1
1
1
1
1
1
1
1
1
1
1
1
1
1
1
1
1
1
1
1
1
1
1
1
1
1
1
1
1
1
1
1
1
1
1
1
1
1
1
1
1
1
1
1
1
1
1
1
1
1
1
1
1
1
1
1
1
1
1
1
1
1
1
1
1
1
1
1
1
1
1
1
1
1
1
1
1
1
1
1
1
1
1
1
1
1
1
1
1
1
1
1
1
1
1
1
1
1
1
1
1
1
1
1
1
1
1
1
1
1
1
1
1
1
1
1
1
1
1
1
1
1
1
1
1
1
1
1
1
1
1
1
1
1
1
1
1
1
1
1
1
1
1
1
1
1
1
1
1
1
1
1
1
1
1
1
1
1
1
1
1
1
1
1
1
1
1
1
1
1
1
1
1
1
1
1
1
1
1
1
1
1
1
1
1
1
1
1
1
1
1
1
1
1
1
1
1
1
1
1
1
1
1
1
1
1
1
1
1
1
1
1
1
1
1
1
1
1
1
1
1
1
1
1
1
1
1
1
1
1
1
1
1
1
1
1
1
1
1
1
1
1
1
1
1
1
1
1
1
1
1
1
1
1
1
1
1
1
1
1
1
1
1
1
1
1
1
1
1
1
1
1
1
1
1
1
1
1
1
1
1
1
1
1
1
1
1
1
1
1
1
1
1
1
1
1
1
1
1
1
1
1
1
1
1
1
1
1
1
1
1
1
1
1
1
1
1
1
1
1
1
1
1
1
1
1
1
1
1
1
1
1
1
1
1
1
1
1
1
1
1
1
1
1
1
1
1
1
1
1
1
1
1
1
1
1
1
1
1
1
1
1
1
1
1
1
1
1
1
1
1
1
1
1
1
1
1
1
1
1
1
1
1
1
1
1
1
1
1
1
1
1
1
1
1
1
1
1
1
1
1
1
1
1
1
1
1
1
1
1
1
1
1
1
1
1
1
1
1
1
1
1
1
1
1
1
1
1
1
1
1
1
1
1
1
1
1
1
1
1
1
1
1
1
1
1
1
1
1
1
1
1
1
1
1
1
1
1
1
1
1
1
1
1
1
1
1
1
1
1
1
1
1
1
1
1
1
1
1
1
1
1
1
1
1
1
1
1
1
1
1
1
1
1
1
1
1
1
1
1
1
1
1
1
1
1
1
1
1
1
1
1
1
1
1
1
1
1
1
1
1
1
1
1
1
1
1
1
1
1
1
1
1
1
1
1
1
1
1
1
1
1
1
1
1
1
1
1
1
1
1
1
1
1
1
1
1
1
1
1
1
1
1
1
1
1
1
1
1
1
1
1
1
1
1
1
1
1
1
1
1
1
1
1
1
1
1
1
1
1
1
1
1
1
1
1
1
1
1
1
1
1
1
1
1
1
1
1
1
1
1
1
1
1
1
1
1
1
1
1
1
1
1
1
1
1
1
1
1
1
1
1
1
1
1
1
1
1
1
1
1
1
1
1
1
1
1
1
1
1
1
1
1
1
1
1
1
1
1
1
1
1
1
1
1
1
1
1
1
1
1
1
1
1
1
1
1
1
1
1
1
1
1
1
1
1
1
1
1
1
1
1
1
1
1
1
1
1
1
1
1
1
1
1
1
1
1
1
1
1
1
1
1
1
1
1
1
1
1
1
1
1
1
1
1
1
1
1
1
1
1
1
1
1
1
1
1
1
1
1
1
1
1
1
1
1
1
1
1
1
1
1
1
1
1
1
1
1
1
1
1
1
1
1
1
1
1
1
1
1
1
1
1
1
1
1
1
1
1
1
1
1
1
1
1
1
1
1
1
1
1
1
1
1
1
1
1
1
1
1
1
1
1
1
1
1
1
1
1
1
0.999999999999
0.999999999999
0.999999999998
0.999999999998
0.999999999998
0.999999999999
0.999999999999
1
1
0.999999999999
1
1
1
1
1
1
1
1
1
1
1
1
1
1
1
1
1
1
1
1
1
1
1
1
1
1
1
1
1
1
1
1
1
1
1
1
1
1
1
1
1
1
1
1
1
1
1
1
1
1
1
1
1
1
1
1
1
1
1
1
1
1
1
1
1
1
1
1
1
1
1
1
1
1
1
1
1
1
1
1
1
1
1
1
1
1
1
1
1
1
1
1
1
1
1
1
1
1
1
1
1
1
1
1
1
1
1
1
1
1
1
1
1
1
1
1
1
1
1
1
1
1
1
1
1
1
1
1
1
1
1
1
1
1
1
1
1
1
1
1
1
1
1
1
1
1
1
1
1
1
1
1
1
1
1
1
1
1
1
1
1
1
1
1
1
1
1
1
1
1
1
1
1
1
1
1
1
1
1
1
0.999999999998
0.999999999997
0.999999999996
0.999999999995
0.999999999994
0.999999999992
0.999999999991
0.99999999999
0.99999999999
0.999999999988
1
1
1
1
1
1
1
1
1
1
1
1
1
1
1
1
1
1
1
1
1
1
1
1
1
1
1
1
1
1
1
1
1
1
1
1
1
1
1
1
1
1
1
1
1
1
1
1
1
1
1
1
1
1
1
1
1
1
1
1
1
1
1
1
1
1
1
1
1
1
1
1
1
1
1
1
1
1
1
1
1
1
1
1
1
1
1
1
1
1
1
1
1
1
1
1
1
1
1
1
1
1
1
1
1
1
1
1
1
1
1
1
1
1
1
1
1
1
1
1
1
1
1
1
1
1
1
1
1
1
1
1
1
1
1
1
1
1
1
1
1
1
1
1
1
1
1
1
1
1
1
1
1
1
1
1
1
1
1
1
1
1
1
1
1
1
1
0.999999999998
0.999999999997
0.999999999996
0.999999999995
0.999999999995
0.999999999995
0.999999999996
0.999999999997
0.999999999997
0.999999999998
0.999999999999
1
1
1
1.00000000001
1.00000000001
1
1
0.999999999996
0.999999999984
0.999999999977
0.999999999976
0.99999999998
1
1
1
1
1
1
1
1
1
1
1
1
1
1
1
1
1
1
1
1
1
1
1
1
1
1
1
1
1
1
1
1
1
1
1
1
1
1
1
1
1
1
1
1
1
1
1
1
1
1
1
1
1
1
1
1
1
1
1
1
1
1
1
1
1
1
1
1
1
1
1
1
1
1
1
1
1
1
1
1
1
1
1
1
1
1
1
1
1
1
1
1
1
1
1
1
1
1
1
1
1
1
1
1
1
1
1
1
1
1
1
1
1
1
1
1
1
1
1
1
1
1
1
1
1
1
1
1
1
1
1
1
1
1
1
1
1
1
1
1
1
1
1
1
1
1
1
1
1
1
1
1
0.999999999999
0.999999999999
0.999999999998
0.999999999998
0.999999999998
0.999999999998
0.999999999999
1
1
1
1
1
0.999999999998
0.999999999998
0.999999999996
0.999999999993
0.999999999991
0.99999999999
0.999999999989
0.999999999989
0.999999999988
0.999999999988
0.999999999988
0.999999999989
0.99999999999
0.999999999995
1
1.00000000001
1.00000000003
1.00000000005
1.00000000006
1.00000000007
1.00000000007
1.00000000007
1.00000000006
1.00000000005
1.00000000005
1.00000000008
1
1
1
1
1
1
1
1
1
1
1
1
1
1
1
1
1
1
1
1
1
1
1
1
1
1
1
1
1
1
1
1
1
1
1
1
1
1
1
1
1
1
1
1
1
1
1
1
1
1
1
1
1
1
1
1
1
1
1
1
1
1
1
1
1
1
1
1
1
1
1
1
1
1
1
1
1
1
1
1
1
1
1
1
1
1
1
1
1
1
1
1
1
1
1
1
1
1
1
1
1
1
1
1
1
1
1
1
1
1
1
1
1
1
1
1
1
1
1
1
1
1
1
1
1
1
1
1
1
1
1
1
1
1
1
1
1
1
1
1
1
1
1
1
1
1
1
1
1
0.999999999999
0.999999999999
0.999999999998
0.999999999997
0.999999999997
0.999999999997
0.999999999997
0.999999999997
0.999999999997
0.999999999997
0.999999999998
0.999999999997
0.999999999997
0.999999999996
0.999999999993
0.999999999991
0.999999999991
0.999999999992
0.999999999998
1.00000000001
1.00000000001
1.00000000001
1.00000000002
1.00000000001
1.00000000001
1
0.999999999999
0.999999999996
0.999999999996
1
1.00000000001
1.00000000002
1.00000000005
1.00000000008
1.00000000013
1.00000000018
1.00000000025
1.00000000034
1.00000000038
1.00000000039
1.00000000044
1
1
1
1
1
1
1
1
1
1
1
1
1
1
1
1
1
1
1
1
1
1
1
1
1
1
1
1
1
1
1
1
1
1
1
1
1
1
1
1
1
1
1
1
1
1
1
1
1
1
1
1
1
1
1
1
1
1
1
1
1
1
1
1
1
1
1
1
1
1
1
1
1
1
1
1
1
1
1
1
1
1
1
1
1
1
1
1
1
1
1
1
1
1
1
1
1
1
1
1
1
1
1
1
1
1
1
1
1
1
1
1
1
1
1
1
1
1
1
1
1
1
1
1
1
1
1
1
1
1
1
1
1
1
1
1
1
1
1
1
1
1
1
1
1
1
0.999999999999
0.999999999999
0.999999999998
0.999999999997
0.999999999997
0.999999999998
1
1
1.00000000001
1.00000000001
1.00000000001
1.00000000001
1
1
0.999999999997
0.999999999992
0.999999999987
0.999999999986
0.99999999999
1
1.00000000003
1.00000000007
1.00000000011
1.00000000015
1.00000000017
1.00000000019
1.00000000019
1.00000000017
1.00000000015
1.00000000012
1.0000000001
1.00000000004
1
0.999999999963
0.999999999783
0.999999999635
0.999999999606
0.99999999962
0.999999999722
1.00000000003
1.0000000002
1.0000000004
1.00000000053
1.00000000045
1
1
1
1
1
1
1
1
1
1
1
1
1
1
1
1
1
1
1
1
1
1
1
1
1
1
1
1
1
1
1
1
1
1
1
1
1
1
1
1
1
1
1
1
1
1
1
1
1
1
1
1
1
1
1
1
1
1
1
1
1
1
1
1
1
1
1
1
1
1
1
1
1
1
1
1
1
1
1
1
1
1
1
1
1
1
1
1
1
1
1
1
1
1
1
1
1
1
1
1
1
1
1
1
1
1
1
1
1
1
1
1
1
1
1
1
1
1
1
1
1
1
1
1
1
1
1
1
1
1
1
1
0.999999999999
0.999999999999
0.999999999998
0.999999999998
0.999999999998
0.999999999999
1
1
1
1
1
0.999999999999
0.999999999999
0.999999999998
0.999999999998
0.999999999997
0.999999999997
1
1.00000000001
1.00000000002
1.00000000004
1.00000000005
1.00000000007
1.00000000007
1.00000000007
1.00000000007
1.00000000005
1.00000000003
1.00000000002
1.00000000002
1.00000000002
1.00000000003
1.00000000008
1.00000000012
1.00000000016
1.00000000023
1.00000000031
1.00000000033
1.00000000035
1.00000000036
1.00000000037
1.00000000038
1.00000000039
1.00000000038
1.00000000035
1.00000000017
1.00000000002
0.999999999895
0.999999999265
0.999999998507
0.999999998167
0.999999997725
0.999999997531
0.999999997304
0.999999997295
0.999999997586
0.999999997729
0.999999997219
1
1
1
1
1
1
1
1
1
1
1
1
1
1
1
1
1
1
1
1
1
1
1
1
1
1
1
1
1
1
1
1
1
1
1
1
1
1
1
1
1
1
1
1
1
1
1
1
1
1
1
1
1
1
1
1
1
1
1
1
1
1
1
1
1
1
1
1
1
1
1
1
1
1
1
1
1
1
1
1
1
1
1
1
1
1
1
1
1
1
1
1
1
1
1
1
1
1
1
1
1
1
1
1
1
1
1
1
1
1
1
1
1
1
1
1
1
1
1
1
1
1
1
1
1
1
1
1
1
0.999999999999
0.999999999999
0.999999999998
0.999999999997
0.999999999994
0.999999999992
0.999999999992
0.999999999992
0.999999999992
0.999999999994
0.999999999997
0.999999999999
0.999999999999
0.999999999999
0.999999999999
0.999999999998
0.999999999998
1
1
1.00000000002
1.00000000004
1.00000000006
1.00000000009
1.00000000011
1.00000000011
1.00000000009
1.00000000008
1.00000000007
1.00000000008
1.00000000011
1.00000000012
1.00000000013
1.00000000015
1.00000000019
1.00000000029
1.00000000036
1.00000000037
1.00000000034
1.00000000021
0.999999999986
0.999999999778
0.999999999605
0.999999999513
0.999999999509
0.99999999958
0.999999999771
0.999999999951
1.00000000005
1.00000000017
1.00000000024
1.00000000022
1.00000000001
0.9999999994
0.999999998662
0.999999997286
0.999999996185
0.999999993661
0.999999990793
0.999999989229
0.999999988742
0.99999998779
1
1
1
1
1
1
1
1
1
1
1
1
1
1
1
1
1
1
1
1
1
1
1
1
1
1
1
1
1
1
1
1
1
1
1
1
1
1
1
1
1
1
1
1
1
1
1
1
1
1
1
1
1
1
1
1
1
1
1
1
1
1
1
1
1
1
1
1
1
1
1
1
1
1
1
1
1
1
1
1
1
1
1
1
1
1
1
1
1
1
1
1
1
1
1
1
1
1
1
1
1
1
1
1
1
1
1
1
1
1
1
1
1
1
1
1
1
1
1
1
1
1
1
1
1
1
1
1
0.999999999999
0.999999999998
0.999999999997
0.999999999997
0.999999999997
0.999999999999
0.999999999999
0.999999999998
0.999999999996
0.999999999993
0.99999999999
0.999999999991
0.999999999995
0.999999999997
1
1.00000000001
1.00000000001
1.00000000002
1.00000000003
1.00000000006
1.00000000009
1.00000000012
1.00000000013
1.00000000009
0.999999999998
0.999999999899
0.999999999641
0.999999999541
0.999999999537
0.999999999601
0.999999999837
0.999999999997
1.00000000006
1.00000000021
1.00000000035
1.00000000036
1.00000000018
0.999999999944
0.999999999487
0.999999998673
0.999999997103
0.999999996337
0.999999995728
0.999999995347
0.999999995226
0.999999995299
0.999999995681
0.99999999639
0.99999999695
0.999999998876
1.00000000095
1.00000000263
1.00000000797
1.00000001045
1.00000001157
1.0000000116
1.00000000996
1.00000000416
0.999999999029
0.999999992273
0.999999989977
0.999999991358
1
1
1
1
1
1
1
1
1
1
1
1
1
1
1
1
1
1
1
1
1
1
1
1
1
1
1
1
1
1
1
1
1
1
1
1
1
1
1
1
1
1
1
1
1
1
1
1
1
1
1
1
1
1
1
1
1
1
1
1
1
1
1
1
1
1
1
1
1
1
1
1
1
1
1
1
1
1
1
1
1
1
1
1
1
1
1
1
1
1
1
1
1
1
1
1
1
1
1
1
1
1
1
1
1
1
1
1
1
1
1
1
1
1
1
1
1
1
1
1
1
1
1
1
1
1
1
1
1
1.00000000001
1.00000000001
1.00000000002
1.00000000004
1.00000000006
1.00000000008
1.00000000009
1.00000000008
1.00000000007
1.00000000004
1.00000000001
1.00000000001
1.00000000001
1.00000000001
1.00000000003
1.00000000005
1.00000000008
1.0000000001
1.00000000012
1.00000000009
0.999999999993
0.999999999787
0.99999999934
0.999999998962
0.999999998626
0.999999998361
0.999999998291
0.999999998266
0.999999998268
0.999999998371
0.9999999986
0.99999999875
0.999999998896
0.999999998866
0.99999999844
0.999999997048
0.999999995974
0.999999994857
0.999999993466
0.999999992088
0.999999991713
0.999999991464
0.999999991232
0.999999991042
0.999999990828
0.999999990683
0.999999990955
0.999999991902
0.999999995811
1.0000000013
1.00000000744
1.00000002017
1.00000003372
1.00000004169
1.00000004951
1.00000005585
1.00000006248
1.00000006345
1.00000006037
1.00000005952
1.00000006547
1
1
1
1
1
1
1
1
1
1
1
1
1
1
1
1
1
1
1
1
1
1
1
1
1
1
1
1
1
1
1
1
1
1
1
1
1
1
1
1
1
1
1
1
1
1
1
1
1
1
1
1
1
1
1
1
1
1
1
1
1
1
1
1
1
1
1
1
1
1
1
1
1
1
1
1
1
1
1
1
1
1
1
1
1
1
1
1
1
1
1
1
1
1
1
1
1
1
1
1
1
1
1
1
1
1
0.999999999999
0.999999999998
0.999999999997
0.999999999996
0.999999999996
0.999999999996
0.999999999997
1
1
1
1
1
1
1
1
1
1
1
1
1
1.00000000001
1.00000000001
1.00000000002
1.00000000004
1.00000000008
1.00000000012
1.00000000017
1.00000000023
1.00000000029
1.00000000031
1.0000000003
1.00000000029
1.00000000025
1.00000000016
1.00000000008
1.00000000005
1.00000000004
1.00000000004
1.00000000003
1.00000000001
0.99999999996
0.999999999739
0.999999999324
0.999999998691
0.99999999791
0.999999997177
0.999999997088
0.999999997326
0.999999998475
0.999999999194
0.999999999252
0.999999998872
0.999999997471
0.999999996472
0.99999999613
0.999999995515
0.999999994046
0.99999999126
0.999999989383
0.999999988939
0.9999999896
0.999999991757
0.999999996919
1.00000000013
1.00000000286
1.00000000463
1.00000000537
1.00000000522
1.00000000361
1.0000000008
0.999999998373
0.999999997542
0.999999996829
0.999999994971
1.00000000135
1.00000001621
1.00000003044
1.0000000468
1.00000008572
1.00000012964
1.0000001774
1.00000019713
1.00000020374
1.00000021677
1
1
1
1
1
1
1
1
1
1
1
1
1
1
1
1
1
1
1
1
1
1
1
1
1
1
1
1
1
1
1
1
1
1
1
1
1
1
1
1
1
1
1
1
1
1
1
1
1
1
1
1
1
1
1
1
1
1
1
1
1
1
1
1
1
1
1
1
1
1
1
1
1
1
1
1
1
1
1
1
1
1
1
1
1
1
1
1
1
1
1
1
1
1
1
1
1
1
1
1
1
1
1
1
1
1
1
1
0.999999999999
0.999999999994
0.99999999999
0.999999999987
0.999999999982
0.999999999981
0.999999999984
0.999999999994
1
1
1
1.00000000001
1.00000000001
1
1
1
1
1.00000000001
1.00000000001
1.00000000003
1.00000000005
1.0000000001
1.00000000015
1.00000000018
1.00000000017
1.00000000013
1.00000000007
1.00000000004
1.00000000008
1.00000000016
1.00000000021
1.00000000021
1.00000000016
1.00000000008
0.999999999966
0.999999999747
0.999999999543
0.999999999187
0.9999999987
0.99999999782
0.999999996673
0.999999995918
0.999999995804
0.99999999725
0.999999999671
1.00000000244
1.00000000767
1.00000001031
1.00000001095
1.0000000106
1.0000000075
1.00000000374
1.00000000178
0.999999999104
0.999999994429
0.999999993243
0.999999994467
1.00000000246
1.00000001199
1.00000002652
1.00000004282
1.00000005595
1.0000000672
1.00000007507
1.00000007873
1.00000007953
1.00000007663
1.00000006259
1.00000003681
1.00000001169
0.999999989639
0.999999929647
0.999999838306
0.999999811096
0.999999810835
0.999999820622
0.999999871261
0.999999994767
1.00000005418
1.0000001168
1.00000016982
1.00000017436
1
1
1
1
1
1
1
1
1
1
1
1
1
1
1
1
1
1
1
1
1
1
1
1
1
1
1
1
1
1
1
1
1
1
1
1
1
1
1
1
1
1
1
1
1
1
1
1
1
1
1
1
1
1
1
1
1
1
1
1
1
1
1
1
1
1
1
1
1
1
1
1
1
1
1
1
1
1
1
1
1
1
1
1
1
1
1
1
1
1
1
1
1
1
1
1
1
1
1
1
1
1
1
1
1
1.00000000001
1.00000000002
1.00000000003
1.00000000003
1.00000000003
1.00000000003
1.00000000001
0.999999999997
0.999999999968
0.99999999995
0.999999999946
0.99999999995
0.999999999956
0.999999999966
0.999999999974
0.999999999979
0.999999999984
0.999999999987
0.999999999987
0.999999999983
0.999999999972
0.999999999953
0.999999999918
0.99999999988
0.999999999788
0.999999999496
0.999999999255
0.999999998696
0.999999998028
0.99999999749
0.999999997223
0.999999997352
0.999999997972
0.999999998363
0.999999999022
0.999999999562
0.999999999651
0.999999999462
0.999999998733
0.999999998056
0.99999999715
0.999999996336
0.999999995949
0.999999996659
1.00000000035
1.00000000485
1.00000001351
1.00000001977
1.00000002436
1.00000002854
1.00000003
1.00000003131
1.00000003657
1.00000004028
1.0000000417
1.00000004055
1.00000003919
1.00000004006
1.00000004923
1.00000005871
1.00000008775
1.00000010451
1.00000012341
1.00000014689
1.00000015617
1.00000016249
1.00000016677
1.00000016894
1.0000001706
1.00000016885
1.00000015779
1.00000010856
1.00000003727
0.999999969382
0.999999841992
0.999999508916
0.999999314329
0.999999222188
0.999999162504
0.999999088117
0.999999050566
0.999999091399
0.999999210067
0.999999271277
0.999999243568
1
1
1
1
1
1
1
1
1
1
1
1
1
1
1
1
1
1
1
1
1
1
1
1
1
1
1
1
1
1
1
1
1
1
1
1
1
1
1
1
1
1
1
1
1
1
1
1
1
1
1
1
1
1
1
1
1
1
1
1
1
1
1
1
1
1
1
1
1
1
1
1
1
1
1
1
1
1
1
1
1
1
1
1
1
1
1
1
1
1
1
1
1
1
1
1
1
1
1
1
1
1
1
1
1.00000000001
1.00000000001
1.00000000003
1.00000000007
1.00000000013
1.00000000017
1.0000000002
1.00000000022
1.00000000021
1.00000000014
1.00000000004
0.999999999993
0.999999999923
0.999999999894
0.999999999887
0.999999999891
0.999999999903
0.999999999916
0.999999999923
0.999999999919
0.999999999892
0.999999999838
0.999999999663
0.999999999406
0.999999999023
0.999999998198
0.999999996555
0.999999995655
0.999999994271
0.999999992835
0.999999991995
0.999999991583
0.999999991781
0.999999993184
0.999999994332
0.999999995706
0.999999997728
0.999999998366
0.999999998935
0.999999999114
0.999999999073
0.99999999965
1.00000000221
1.00000000767
1.00000001974
1.00000003267
1.00000004749
1.00000005501
1.00000005222
1.00000004234
1.00000002097
1.00000000521
1.00000000022
1.0000000161
1.00000004055
1.00000007518
1.00000009106
1.00000010814
1.0000001323
1.00000016236
1.00000019354
1.00000020098
1.00000019658
1.00000018782
1.00000014606
1.00000011377
1.00000007993
1.00000005711
1.00000004353
1.00000003557
1.00000004556
1.00000007977
1.00000010892
1.0000001037
1.00000010481
1.00000001101
0.999999680895
0.999999252681
0.99999896617
0.999998678046
0.999998301515
0.999997567159
0.999997133832
0.99999699282
0.999996974393
0.999996885521
1
1
1
1
1
1
1
1
1
1
1
1
1
1
1
1
1
1
1
1
1
1
1
1
1
1
1
1
1
1
1
1
1
1
1
1
1
1
1
1
1
1
1
1
1
1
1
1
1
1
1
1
1
1
1
1
1
1
1
1
1
1
1
1
1
1
1
1
1
1
1
1
1
1
1
1
1
1
1
1
1
1
1
1
1
1
1
1
1
1
1
1
1
1
1
1
1
0.999999999999
0.999999999999
0.999999999999
0.999999999997
0.99999999999
0.999999999975
0.999999999964
0.999999999949
0.999999999909
0.999999999893
0.999999999899
0.999999999968
1.00000000007
1.00000000018
1.00000000043
1.0000000006
1.00000000063
1.00000000059
1.00000000052
1.00000000034
1.00000000024
1.00000000016
1.0000000001
1.00000000005
1.00000000003
1.00000000001
0.999999999971
0.99999999994
0.999999999836
0.999999999428
0.999999999193
0.999999998433
0.999999997112
0.999999994975
0.999999994286
0.999999994304
0.99999999493
0.999999996075
0.99999999701
0.999999997793
0.999999997779
0.99999999769
0.999999997995
0.999999999592
1.00000000077
1.00000000275
1.00000001047
1.00000001722
1.00000002492
1.00000003626
1.0000000521
1.00000007214
1.00000008437
1.00000008538
1.00000006129
1.00000002131
0.999999979886
0.999999886681
0.999999814814
0.999999790313
0.999999783653
0.999999831352
0.999999906924
0.999999952893
1.00000002271
1.00000006161
1.00000008576
1.00000005758
0.999999991417
0.999999903387
0.999999800241
0.999999573577
0.999999456717
0.999999343661
0.999999278459
0.999999238308
0.999999212606
0.999999242351
0.999999383895
0.999999863407
1.0000002254
1.00000116024
1.00000165688
1.000001736
1.00000165338
1.00000141198
1.00000065577
0.999999966578
0.999998616411
0.999997102852
0.999996288523
0.999995995161
0.999995825668
1
1
1
1
1
1
1
1
1
1
1
1
1
1
1
1
1
1
1
1
1
1
1
1
1
1
1
1
1
1
1
1
1
1
1
1
1
1
1
1
1
1
1
1
1
1
1
1
1
1
1
1
1
1
1
1
1
1
1
1
1
1
1
1
1
1
1
1
1
1
1
1
1
1
1
1
0.999999999999
0.999999999999
0.999999999999
1
1
1.00000000001
1.00000000001
1.00000000001
1.00000000001
1.00000000001
1.00000000001
1.00000000001
1.00000000001
1.00000000001
1.00000000001
1.00000000001
1.00000000001
1
1
1
1
1
1
0.999999999999
0.999999999988
0.999999999965
0.999999999893
0.999999999838
0.999999999776
0.999999999572
0.999999999066
0.9999999986
0.99999999835
0.99999999821
0.999999998139
0.999999998425
0.999999999277
1.00000000017
1.00000000065
1.00000000108
1.00000000119
1.00000000122
1.00000000116
1.00000000107
1.00000000094
1.00000000083
1.00000000083
1.00000000088
1.00000000132
1.00000000174
1.00000000319
1.00000000581
1.00000000735
1.00000001177
1.00000001727
1.00000002097
1.0000000293
1.00000003852
1.00000004592
1.00000005017
1.00000005079
1.00000004197
1.00000003114
1.00000002347
1.00000001862
1.00000001672
1.00000001799
1.00000003064
1.00000005857
1.00000007443
1.00000009072
1.00000010117
1.00000009856
1.00000004844
0.999999984345
0.999999877648
0.999999804788
0.999999772794
0.999999683844
0.99999958749
0.999999515913
0.999999284803
0.999999132722
0.999999125403
0.999999166006
0.999999257709
0.999999283626
0.999999243773
0.999999058517
0.999998681466
0.999998520724
0.999998320591
0.999997989871
0.999997860243
0.999997755263
0.999997664704
0.999997589856
0.99999755122
0.999997587058
0.999997848649
0.999999023046
1.00000049344
1.00000260902
1.00000539494
1.00000678677
1.00000783014
1.00000877949
1.00000906939
1.00000890789
1.00000798989
1.00000640264
1.00000513278
1.00000440356
1.00000421622
1
1
1
1
1
1
1
1
1
1
1
1
1
1
1
1
1
1
1
1
1
1
1
1
1
1
1
1
1
1
1
1
1
1
1
1
1
1
1
1
1
1
1
1
1
1
1
1
1
1
1
1
1
1
1
1
1
1
1
1
1
1
1
1
1
1
1
1
1
1
1
1
0.999999999999
0.999999999997
0.999999999995
0.999999999995
0.999999999992
0.999999999987
0.999999999975
0.999999999958
0.999999999946
0.999999999941
0.999999999942
0.999999999947
0.999999999955
0.999999999963
0.99999999997
0.999999999977
0.999999999985
0.999999999992
0.999999999997
1
1
1.00000000001
1.00000000001
1.00000000001
1.00000000001
1.00000000001
1.00000000001
1.00000000001
1.00000000003
1.00000000011
1.00000000018
1.00000000021
1.00000000017
0.999999999956
0.999999998769
0.999999997169
0.999999996085
0.999999994568
0.999999992674
0.999999991881
0.999999992236
0.999999994262
0.999999997192
0.999999998255
0.999999999336
1.00000000014
1.00000000047
1.00000000072
1.0000000009
1.0000000011
1.00000000185
1.00000000247
1.00000000422
1.00000000804
1.00000001789
1.00000002494
1.00000003943
1.00000005515
1.00000008542
1.00000010194
1.00000011945
1.00000013839
1.00000014798
1.00000015216
1.00000014818
1.00000012231
1.00000007236
1.00000005306
1.00000003271
1.00000002462
1.00000002144
1.00000002074
1.00000001571
1.00000000651
0.999999993949
0.999999941727
0.999999825142
0.999999647822
0.999999421667
0.99999933224
0.999999447069
0.999999720351
1.00000004755
1.00000016306
1.00000002031
0.999999536919
0.999998576103
0.999998180214
0.999998056328
0.999997862232
0.999997613322
0.999997260691
0.999996875368
0.999996615799
0.999996557691
0.999996563135
0.999996635716
0.999996704953
0.999996793178
0.999996856984
0.999996867969
0.999996814657
0.999996774738
0.999996917353
0.999997538834
0.999999574279
1.00000187285
1.00000600733
1.00001050526
1.00001338488
1.00001713609
1.00002201485
1.00002573796
1.000027819
1.00002805266
1.00002747058
1.00002643807
1.00002615098
1
1
1
1
1
1
1
1
1
1
1
1
1
1
1
1
1
1
1
1
1
1
1
1
1
1
1
1
1
1
1
1
1
1
1
1
1
1
1
1
1
1
1
1
1
1
1
1
1
1
1
1
1
1
1
1
1
1
1
1
1
1
1
1
1
1
1
1
1
1
1
0.999999999999
1
1
1
1
1
0.999999999997
0.999999999979
0.999999999925
0.999999999857
0.999999999795
0.999999999758
0.999999999747
0.999999999752
0.999999999768
0.999999999788
0.999999999814
0.999999999843
0.999999999872
0.999999999898
0.99999999992
0.999999999941
0.999999999957
0.99999999997
0.999999999979
0.999999999987
0.999999999993
1.00000000001
1.00000000004
1.00000000021
1.00000000075
1.00000000205
1.00000000323
1.00000000429
1.00000000548
1.00000000643
1.00000000686
1.00000000596
1.00000000231
0.999999999149
0.999999992696
0.999999988257
0.999999987637
0.999999988322
0.999999989012
0.999999990172
0.999999991666
0.999999992509
0.999999993216
0.999999994099
0.999999995157
0.999999996273
0.999999997894
0.999999999336
1.00000000489
1.00000001242
1.0000000196
1.00000004792
1.00000007483
1.00000011515
1.00000013256
1.00000013773
1.0000001342
1.00000012066
1.00000010946
1.00000008226
1.00000004195
0.999999995284
0.999999955999
0.999999914675
0.999999898798
0.999999880743
0.999999822788
0.99999961066
0.999999425573
0.999999300865
0.999999098273
0.999998797848
0.999998526722
0.999998482321
0.999998849661
0.999999750776
1.00000077474
1.00000232575
1.00000311016
1.00000338469
1.00000299277
1.00000142665
1.00000050996
0.999999758163
0.999998745111
0.999997725424
0.999997312255
0.999997291789
0.999997771637
0.999998551935
0.9999991302
1.00000007104
1.00000053121
1.00000097241
1.00000131966
1.00000158556
1.00000154193
1.00000067759
0.999998750408
0.999996388354
0.99999298626
0.999991915614
0.999993696873
1.00000065697
1.00000379986
1.00000987325
1.00002300455
1.00003337645
1.00004098656
1.00004611873
1.0000485056
1.00004896677
1.00005001472
1
1
1
1
1
1
1
1
1
1
1
1
1
1
1
1
1
1
1
1
1
1
1
1
1
1
1
1
1
1
1
1
1
1
1
1
1
1
1
1
1
1
1
1
1
1
1
1
1
1
1
1
1
1
1
1
1
1
1
1
1
1
1
1
1
1
1
1
1
1
1
1
1.00000000002
1.00000000005
1.00000000007
1.00000000008
1.00000000015
1.00000000023
1.00000000036
1.00000000043
1.00000000044
1.00000000041
1.00000000032
1.00000000021
1.00000000013
1.00000000006
0.999999999993
0.999999999944
0.999999999903
0.999999999877
0.999999999861
0.999999999854
0.999999999855
0.999999999865
0.99999999988
0.999999999897
0.999999999918
0.999999999933
0.999999999968
1.00000000013
1.00000000026
1.00000000083
1.00000000262
1.00000000618
1.00000000957
1.00000001378
1.0000000278
1.000000046
1.0000000606
1.00000006448
1.00000006253
1.00000005249
1.0000000278
1.00000000889
1.00000000125
0.999999994424
0.999999988125
0.999999985592
0.999999984458
0.999999984097
0.999999983204
0.999999977884
0.999999970972
0.999999961869
0.999999939224
0.999999886864
0.999999833595
0.999999803152
0.999999783575
0.999999765161
0.999999725734
0.999999689851
0.999999630032
0.999999547518
0.999999469119
0.999999407266
0.99999938543
0.999999457315
0.99999961812
0.999999637777
0.999999589223
0.999999547643
0.999999482443
0.999999283297
0.999998635544
0.999998115851
0.999997870574
0.999997639118
0.999997580913
0.999997828563
0.999998642907
1.00000043702
1.0000014941
1.0000031229
1.00000593812
1.00000792522
1.00000975741
1.00001158681
1.0000116432
1.00001059628
1.00000978139
1.00000830996
1.00000722428
1.00000741968
1.00000807456
1.00001021647
1.00001224229
1.00001328483
1.00001422913
1.00001479958
1.00001557079
1.00001640136
1.00001735595
1.00001785206
1.00001614229
1.00000592332
0.999996909077
0.999977570184
0.999962565849
0.999954681609
0.999950578911
0.999950704795
0.999954207943
0.999966676772
0.999987075281
1.00000123888
1.00001147727
1.00002164121
1.00002593359
1.00003312817
1
1
1
1
1
1
1
1
1
1
1
1
1
1
1
1
1
1
1
1
1
1
1
1
1
1
1
1
1
1
1
1
1
1
1
1
1
1
1
1
1
1
1
1
1
1
1
1
1
1
1
1
1
1
1
1
1
1
1
1
1
1
1
1
1
1
1
1
1
1.00000000001
1.00000000001
1.00000000002
1.00000000004
1.00000000006
1.00000000009
1.00000000011
1.00000000028
1.00000000051
1.00000000097
1.00000000184
1.00000000246
1.00000000288
1.00000000307
1.00000000304
1.00000000281
1.00000000252
1.00000000221
1.00000000184
1.00000000148
1.00000000114
1.00000000082
1.0000000006
1.00000000041
1.00000000024
1.00000000014
1.00000000008
1.00000000004
1
0.999999999931
0.999999999603
0.99999999799
0.999999991158
0.999999983282
0.999999982249
0.999999983673
0.999999990877
1.00000002053
1.00000005817
1.00000010412
1.00000015224
1.00000018054
1.00000017926
1.00000015051
1.00000010157
1.00000007979
1.00000005747
1.00000003683
1.00000002788
1.00000002156
1.00000001804
1.00000001103
0.999999987504
0.999999950842
0.999999908729
0.999999812351
0.999999609041
0.999999267299
0.999999116546
0.999998954702
0.999998736769
0.999998400648
0.999998195136
0.999998066187
0.999997932511
0.99999784931
0.999997839998
0.999997947705
0.999998557263
0.999999504088
0.99999977903
0.99999986981
0.999999825872
0.999999736303
0.999999410067
0.999998548738
0.999998183747
0.999998184524
0.999998424148
0.999999846275
1.00000203539
1.0000038619
1.0000050942
1.00000435903
1.00000386808
1.00000414194
1.00000648973
1.00000925264
1.00001786791
1.0000236228
1.00002608823
1.00002655682
1.00002645005
1.00002687312
1.00002798893
1.00003050582
1.00003329139
1.00003439377
1.00003493977
1.00003521635
1.00003532719
1.00003584167
1.00003695272
1.00003850849
1.00003993837
1.00003883215
1.0000248149
1.00000134823
0.999964846813
0.999926453302
0.999886545234
0.999839119084
0.999822977
0.999811231766
0.999809968036
0.999818616451
0.999839258194
0.999859782426
0.999881022285
0.999893448958
0.999911209141
1
1
1
1
1
1
1
1
1
1
1
1
1
1
1
1
1
1
1
1
1
1
1
1
1
1
1
1
1
1
1
1
1
1
1
1
1
1
1
1
1
1
1
1
1
1
1
1
0.999999999999
0.999999999999
0.999999999999
0.999999999999
0.999999999999
0.999999999999
0.999999999999
0.999999999999
0.999999999999
1
1
1
1
1
1
1
1
1
1
1
1
1
0.999999999997
0.999999999982
0.999999999891
0.999999999465
0.999999999206
0.999999999032
0.999999998712
0.999999998356
0.999999998169
0.999999998463
0.999999999944
1.00000000069
1.00000000229
1.00000000317
1.0000000037
1.0000000039
1.00000000386
1.00000000364
1.00000000328
1.0000000029
1.00000000248
1.00000000215
1.00000000181
1.00000000144
1.0000000011
1.00000000082
1.00000000047
1.00000000017
0.999999999919
0.999999998891
0.999999992749
0.999999964684
0.999999915795
0.999999888345
0.999999872884
0.999999832176
0.999999780034
0.999999771091
0.999999796935
0.999999890217
1.00000000875
1.00000008082
1.00000014721
1.00000015469
1.00000015094
1.00000014218
1.00000013009
1.00000012228
1.00000011709
1.00000011625
1.00000011974
1.00000015727
1.00000017265
1.00000016459
1.00000009549
0.999999849722
0.999999317515
0.999999013169
0.999998578282
0.99999798805
0.999997376917
0.99999701187
0.999996919273
0.999996966971
0.999997172087
0.999997400859
0.999997815449
0.99999915258
1.0000010516
1.00000191127
1.00000294097
1.0000033217
1.00000365067
1.00000388408
1.00000439653
1.00000586501
1.00000688286
1.00000814889
1.0000107045
1.00001411386
1.00001534801
1.00001203138
1.00000176677
0.999991950887
0.999978781887
0.999976558856
0.999979772125
0.999995715562
1.00001050894
1.00002300856
1.00002909381
1.00003270304
1.0000386801
1.00004083437
1.00004138296
1.00004077427
1.00003991114
1.00003915526
1.00003858213
1.00003863502
1.00003933059
1.00004035563
1.00004112985
1.00004240454
1.0000437527
1.00004375524
1.000029793
0.999981880904
0.999933046129
0.999852174865
0.999728166028
0.999685833661
0.999625742495
0.999572676642
0.999539625858
0.999531064055
0.99953779125
0.999563227146
0.999588664048
0.99961927542
1
1
1
1
1
1
1
1
1
1
1
1
1
1
1
1
1
1
1
1
1
1
1
1
1
1
1
1
1
1
1
1
1
1
1
1
1
1
1
1
1
1
1
1
1
1
1
1
1
1
1
1
1
1
1
1
1
1
1
1.00000000001
1
1
1
1
1
1
0.999999999999
0.999999999988
0.999999999957
0.999999999927
0.999999999901
0.999999999833
0.999999999533
0.999999998293
0.999999997676
0.999999996987
0.999999995387
0.999999992415
0.999999986487
0.999999979215
0.999999974626
0.999999973625
0.999999974685
0.999999977844
0.999999981565
0.999999985526
0.999999988588
0.999999991549
0.999999994187
0.999999996339
0.999999997953
0.999999999103
0.999999999795
1.0000000001
1.00000000011
0.999999999856
0.999999999583
0.999999999622
1.00000000041
1.00000000193
1.00000000505
0.99999999113
0.999999930516
0.99999986942
0.999999801137
0.999999651432
0.999999310619
0.999998863086
0.999998616198
0.999998578978
0.999998655784
0.999998971583
0.999999529525
0.999999766355
0.999999880347
0.999999981048
1.00000004263
1.00000006961
1.00000008258
1.00000009155
1.00000014702
1.00000057953
1.00000097405
1.00000138755
1.00000219293
1.00000264404
1.00000282915
1.00000317391
1.00000325084
1.00000314208
1.00000265202
1.00000213009
1.00000199542
1.00000220041
1.00000272255
1.00000312997
1.00000342894
1.00000328779
1.0000041035
1.0000058675
1.00000872214
1.00001058408
1.00001202804
1.00001540718