/*--------------------------------*- C++ -*----------------------------------*\
  =========                 |
  \\      /  F ield         | OpenFOAM: The Open Source CFD Toolbox
   \\    /   O peration     | Website:  https://openfoam.org
    \\  /    A nd           | Version:  8
     \\/     M anipulation  |
\*---------------------------------------------------------------------------*/
FoamFile
{
    version     2.0;
    format      ascii;
    class       volScalarField;
    location    "0.000664";
    object      magGradrho;
}
// * * * * * * * * * * * * * * * * * * * * * * * * * * * * * * * * * * * * * //

dimensions      [1 -4 0 0 0 0 0];

internalField   nonuniform List<scalar> 
22800
(
0.517928782024
0.540484601408
0.555778120133
0.56677928376
0.567784550583
0.564207846617
0.568518698768
0.5729996399
0.577673195797
0.59052852489
0.612935458386
0.642211590141
0.661740654117
0.680950672093
0.69823239873
0.704943655771
0.706844146824
0.714586634314
0.728380548978
0.740229731658
0.736814515338
0.723685286225
0.712227006479
0.701057457939
0.689376533041
0.675044311629
0.660683161007
0.649998072492
0.645943545552
0.649860113242
0.658962793602
0.670582321973
0.690161806203
0.71500230115
0.74192478365
0.769808613171
0.79921298615
0.81686620335
0.842327004721
0.877991477507
0.912786784663
0.943167985911
0.968072112036
1.01800179333
1.04774862423
1.08305848399
1.10576788858
1.12225672069
1.13214564293
1.14446600287
1.16543829092
1.19600574793
1.23148164786
1.25763818938
1.27806921162
1.31542828083
1.36216870024
1.39195076513
1.40319238373
1.41328497995
1.4385571471
1.47767229638
1.520685924
1.56899976384
1.61167073514
1.65124164872
1.69584315694
1.744635224
1.79356337145
1.83855110026
1.87854856478
1.90831070245
1.94358731716
1.91274416618
1.8750396095
1.85123170976
1.83756017423
1.82794215295
1.81337489722
1.78591036769
1.74859807532
1.70715833848
1.67454628839
1.65566270879
1.64949917978
1.66136224102
1.69555954239
1.72718447433
1.73734323098
1.7521567339
1.75125464986
1.74762480665
1.78623290989
1.82828595815
1.87269867567
1.90634547694
1.90254595854
1.85552878911
1.80693608004
1.78667538305
1.8004763915
1.83297143792
1.85602485596
1.87056222126
1.85949015697
1.83529046947
1.81401071038
1.81314905502
1.83904690602
1.93207305472
1.94656373787
1.95689442614
1.89485806959
1.80984641669
1.74368540194
1.71818515576
1.71141404876
1.69622916884
1.69563658522
1.69687041498
1.68464931418
1.67406138668
1.67001850028
1.68711491708
1.62104906149
1.54506172584
1.48797912596
1.46702861041
1.47737151921
1.49087760567
1.49924189549
1.48904382153
1.46315073321
1.41857503054
1.4125387511
1.31605451725
1.27268977924
1.1877542566
1.11434116581
1.06308400916
1.01709719981
0.959978266292
0.919165442808
0.890548377254
0.860841778159
0.880175807291
0.838431307983
0.769609872286
0.721864901961
0.693498639537
0.658643689907
0.631615327938
0.601288225163
0.573446917073
0.548627219609
0.509242982536
0.445704163401
0.356604376392
0.27358259643
0.199759360627
0.121919949289
0.0893817591058
0.121326182877
0.160623258912
0.137514407487
0.0687495542701
0.0828497316281
0.189354578227
0.291919912893
0.333923223064
0.322324300211
0.305527000043
0.27540467845
0.262289014113
0.268589537897
0.290106913626
0.317356562738
0.345399740648
0.344695303873
0.31650259367
0.287447694842
0.255828057135
0.223747584216
0.201439403597
0.182391772141
0.156858054014
0.126868268673
0.0940890069354
0.0482953378365
0.0592115848288
0.387412776675
0.386646138743
0.437309032668
0.441020552805
0.394057173673
0.323574736429
0.278794087846
0.258440966093
0.250799303926
0.242463752239
0.239145926516
0.241591667518
0.237573274679
0.233204759512
0.242421402679
0.249297838808
0.244618665726
0.243100393655
0.249782606634
0.262823307987
0.273590844443
0.268906095482
0.261202158369
0.263197982993
0.274084729848
0.287135744704
0.302506136336
0.32521319379
0.356641775126
0.394899794953
0.432085687184
0.471695665305
0.515752374797
0.562060920745
0.607778274585
0.653737781428
0.689670829263
0.718645042524
0.758287472707
0.795368284794
0.821674107888
0.83361436473
0.858363352586
0.886259503816
0.90225221278
0.921347069631
0.937260756632
0.954571380595
0.974780317834
0.999580754742
1.03107796085
1.06842416155
1.09751702185
1.11009573588
1.11682097576
1.12822830417
1.13770949403
1.14119823013
1.14987670542
1.16503055637
1.18138750344
1.19731712356
1.20502195564
1.21452236623
1.22605904588
1.23635322139
1.25098762928
1.27278359448
1.30480874381
1.34139607958
1.38184924877
1.41630435722
1.43264104984
1.40260066409
1.33482363541
1.26133421774
1.19895707843
1.16604403816
1.16325209799
1.18151974326
1.20918465428
1.2350244873
1.25109072665
1.26226066065
1.27432010223
1.28554520731
1.29385700659
1.30655813938
1.33923112344
1.37805226325
1.40731779996
1.44153029574
1.47590009846
1.51277286354
1.5451199
1.56890395381
1.58112671266
1.58875377035
1.58946481431
1.58414885873
1.57840703345
1.58290961895
1.58652623525
1.57519505178
1.56322514105
1.55514383822
1.55865900424
1.57479729454
1.59527486071
1.63204945354
1.62628464444
1.54781505886
1.46833735567
1.42101900396
1.41233289242
1.42966599362
1.44111804223
1.43985579871
1.43782224043
1.4291279548
1.42353613687
1.43526087077
1.46426347782
1.48754623744
1.46698066104
1.44164392457
1.41601951443
1.39019417204
1.36423853712
1.3401577557
1.31305127115
1.28191790214
1.25694313299
1.24067565946
1.2523638918
1.23842933026
1.16942184701
1.08508439996
1.01036407778
0.962440428151
0.930721159367
0.899495556976
0.877458402407
0.864394422999
0.862774284099
0.872622784035
0.827798954603
0.7725408243
0.725517159474
0.687169101553
0.641202147226
0.594552073314
0.550651160923
0.514618151552
0.478528606527
0.461033065814
0.388318695694
0.302333305144
0.232295622911
0.177323072462
0.115698138311
0.0877682665708
0.11712049693
0.15280255958
0.122020180388
0.0527972552847
0.0173921256678
0.0749452961101
0.101460305879
0.109482412956
0.11994260632
0.138904919967
0.152370789119
0.170275894135
0.196054223564
0.220733847075
0.230922883234
0.22979153939
0.222354092471
0.20474098976
0.18381159209
0.164980406605
0.153663282301
0.145810126456
0.135490635193
0.119654370308
0.10055269779
0.0800468346201
0.0504655638953
0.0672475783483
0.598331702856
0.56435379091
0.598211472224
0.572503063712
0.502008323191
0.415061735755
0.347662819906
0.303426003344
0.275828028648
0.250917878905
0.235826495534
0.227242491259
0.192843832735
0.154494676302
0.153968575083
0.165086494628
0.140522508397
0.104706095931
0.0954458181459
0.113476018117
0.136016280979
0.12272379188
0.0799604024774
0.0404931129689
0.040548636742
0.0539653214505
0.0799979353238
0.122671101776
0.176559774521
0.232686045287
0.279792921526
0.331151214409
0.392568964401
0.459171536098
0.516180769282
0.563917832335
0.597768873012
0.623971406075
0.657512956643
0.678868738611
0.684116472226
0.671835858755
0.687895060512
0.713668992331
0.726283259537
0.750427901276
0.776534434091
0.809507169973
0.8513397984
0.901287279217
0.959666067309
1.01948163583
1.06804013944
1.09405177542
1.1136475508
1.14315479019
1.16748011786
1.18012353806
1.19713866446
1.22455480668
1.25347301091
1.27221635055
1.2835114323
1.29798447835
1.31469752965
1.33001572356
1.34886950459
1.36879754599
1.3901497552
1.41395192844
1.43908286268
1.44297940544
1.41668905358
1.33296871208
1.22866074064
1.14508489512
1.06124987483
0.989313872229
0.944507133256
0.933629568829
0.950411058244
0.973345206381
0.991498153738
1.00959544624
1.02618477628
1.04758373271
1.07241514414
1.10265565443
1.1403796075
1.17969251376
1.20632364322
1.23578278685
1.27165998884
1.30149266326
1.31920183043
1.33348292303
1.34810889287
1.36913673014
1.39159187659
1.40428776287
1.41161209556
1.42734874394
1.44417278116
1.44485922494
1.4470937425
1.45416421991
1.46795616415
1.486336548
1.5019843279
1.53381529893
1.50125297072
1.37674220962
1.25072284061
1.16988886798
1.15062632682
1.16478240992
1.17397190069
1.17839220236
1.17886411933
1.17088699545
1.17233571906
1.19902085714
1.25206811998
1.28905372132
1.27910606272
1.26789027535
1.25297949747
1.22739936337
1.19348924201
1.15841233876
1.11065883227
1.07251411087
1.05957499248
1.06927929438
1.12235318535
1.14029708224
1.07454141274
0.97861954569
0.87799657046
0.801073680432
0.752629622636
0.71947607215
0.710812498067
0.722215972397
0.750355411329
0.771736082745
0.733067018729
0.681785176366
0.634221931251
0.60049597244
0.565540303241
0.523872013387
0.487697569968
0.47468953517
0.459294311059
0.440267889469
0.373721240575
0.286685634573
0.222397202889
0.178252225465
0.118503854487
0.0705214956568
0.0902890115469
0.134681559818
0.110034289652
0.0520312112361
0.0542723659847
0.0955238426178
0.101561194868
0.108409247643
0.142562638062
0.191212266067
0.227159203496
0.253994644165
0.268189650955
0.268859593917
0.24728934608
0.219363541786
0.197194202914
0.177881839458
0.162799457647
0.156358011628
0.14942618887
0.140838009679
0.129905805907
0.117847051445
0.103755851314
0.0885025372217
0.0552068388556
0.0910413359336
0.77267983467
0.697965468811
0.728071787208
0.698154781482
0.633791089946
0.555415474274
0.485976958794
0.437838546105
0.396937812614
0.348480124135
0.319168289379
0.302745576655
0.241377221023
0.167845082527
0.169703151214
0.207003706279
0.182841838643
0.129765545818
0.122507173125
0.157485758328
0.183962789701
0.167460932989
0.129736380011
0.101110130534
0.100028551331
0.103208986441
0.117871691164
0.154391890047
0.210729553802
0.277338719835
0.336768141062
0.400741579304
0.471958671184
0.545019361881
0.60908475614
0.662674467104
0.698614321651
0.722226564702
0.740384938007
0.735685562861
0.726022382738
0.707143308865
0.713214427663
0.731349861912
0.752583037003
0.800064851146
0.847897481776
0.901852519945
0.964532772991
1.03293432735
1.10234444774
1.16923847756
1.22562783419
1.24978266326
1.26123362664
1.28935510293
1.31360553457
1.31987415189
1.3326729466
1.36009350227
1.38917388396
1.40615286917
1.41394393061
1.4285663993
1.44704618777
1.46271473339
1.47346813558
1.48221579604
1.4993713381
1.5237552647
1.55424171938
1.5697650911
1.52494600321
1.37958067914
1.20031817011
1.06178345911
0.947344755803
0.839967928963
0.739149967568
0.676310463884
0.668471667513
0.690423339434
0.726717728339
0.768410186312
0.806627656061
0.847511140398
0.887937474284
0.932530367805
0.985907981839
1.0315485488
1.05562724547
1.07736461064
1.1153302283
1.13499845587
1.14936125313
1.17898810048
1.22285436499
1.27323607433
1.32691074595
1.37913751011
1.41910962009
1.44217089117
1.45314270813
1.45981108157
1.47475012546
1.4961207169
1.51711912938
1.53728520528
1.54659530063
1.57190102443
1.51713040054
1.31801278174
1.11427376536
0.968467384834
0.901594768943
0.884739881072
0.885463952887
0.888545210878
0.881907697611
0.883725597724
0.91237114927
0.971017397801
1.05022210184
1.10059884172
1.10753819564
1.11418961313
1.12528389248
1.12393157436
1.10869370893
1.08556011128
1.04384116125
1.01153783112
1.00928127498
1.02918394652
1.08557066754
1.10957053843
1.03240838831
0.907159247477
0.763308622026
0.634095782352
0.551207456231
0.506246085153
0.507040539611
0.538840507321
0.585226380052
0.609797597588
0.580255661858
0.541220340069
0.51144679099
0.500534777522
0.496104517623
0.483259029135
0.467337095842
0.474095384713
0.480002575792
0.450767312828
0.372665412016
0.26495759876
0.189407300901
0.147438338238
0.094650440338
0.0220349931051
0.0582385043978
0.124526463156
0.131524189243
0.109170148143
0.104928583499
0.110455234262
0.104718724875
0.116940705181
0.172452275235
0.249314320351
0.299928132175
0.313807036297
0.297111333222
0.272650499489
0.244447449493
0.219627554615
0.196526089035
0.169346047871
0.149490714593
0.142294167337
0.131207916428
0.119099854782
0.109766868726
0.106109014658
0.101885387219
0.0955344502433
0.0626647794765
0.1142818824
0.908328190105
0.770879100912
0.795801036379
0.783877395912
0.760250527758
0.712139948419
0.659627263348
0.612811185737
0.563435238411
0.510683759833
0.483005580434
0.450268834352
0.354467455678
0.268297409286
0.278750752622
0.294014090678
0.228443343905
0.171478359059
0.193968588915
0.236020387307
0.226471337761
0.19019717461
0.162990671135
0.137557809056
0.139755899053
0.159998115195
0.187542385644
0.226198653116
0.282567647717
0.350741171047
0.409039504262
0.459781970606
0.515305126468
0.589214544511
0.679968744086
0.765891651522
0.817846741869
0.848088956484
0.866338533352
0.853763133437
0.849647029347
0.85221613971
0.86621280226
0.881625507673
0.91920959123
0.988007801229
1.05113776038
1.11848095189
1.19043783162
1.2635873686
1.32811470752
1.38322432219
1.42772635691
1.4366959685
1.42803912976
1.44115334696
1.45327079363
1.4433142738
1.44557548708
1.4608534162
1.48443150065
1.50453085331
1.52527527421
1.55109947456
1.57004074122
1.57730888314
1.57288033698
1.57208335055
1.59542485146
1.64340045753
1.70637036899
1.76108436973
1.73138703737
1.56044670556
1.31862736441
1.11660715857
0.961986056707
0.846369258514
0.731121650436
0.623592092039
0.57851487667
0.593114407844
0.636826856261
0.685992511934
0.736310788729
0.789564579313
0.83926847061
0.889856551842
0.947092008528
0.989982572814
1.01028055462
1.04012012413
1.08688496822
1.1162663206
1.15735688314
1.22149601728
1.30732242002
1.38997822181
1.45253351978
1.50959560164
1.55071915841
1.55527901734
1.53884568017
1.53741568122
1.55551459521
1.58380835874
1.61187232342
1.64096699054
1.66830467692
1.7175620694
1.67961293243
1.4330222236
1.14410621295
0.923972984192
0.799105998209
0.743763784007
0.718487943465
0.70342122008
0.699271748461
0.721018791382
0.776586517033
0.862700554271
0.97255091456
1.05960894725
1.08765412563
1.10319109248
1.1265444513
1.14300121707
1.1445585279
1.14178361129
1.13727077686
1.13369199348
1.14145906092
1.15148660066
1.17920106133
1.17973373158
1.0760798417
0.916169326296
0.748327362538
0.58768467699
0.463320916611
0.387510142946
0.380264683842
0.414537356184
0.46056343015
0.488219941476
0.47608267028
0.465793890419
0.468464698144
0.480446737182
0.493801157619
0.499655364023
0.505555792603
0.528992339601
0.549894261664
0.515175038834
0.422264687782
0.291446342788
0.193896388814
0.147810332453
0.104777639646
0.0716619246635
0.0978639314403
0.14834050455
0.163330928543
0.150850707837
0.135999558627
0.124813560079
0.115529078624
0.145133276021
0.225597975567
0.31202847411
0.342464607015
0.334158765156
0.3021924538
0.270775317703
0.25038567671
0.24062787091
0.222622675215
0.189028695942
0.161685358616
0.146014849398
0.126586262711
0.111964225662
0.104554630944
0.104058113915
0.102659305127
0.101483741804
0.0688377562651
0.135891323189
1.01729367238
0.823616435209
0.85910967784
0.863722623755
0.861913381669
0.839105996008
0.801212691634
0.754858473487
0.704571188034
0.657558675578
0.625464667573
0.569654291437
0.471083020759
0.421894928188
0.432220308281
0.380982565907
0.286552472749
0.267493282988
0.309200586992
0.299437032391
0.232457454301
0.188789112366
0.166905938737
0.145737920644
0.170364020376
0.225848777372
0.276835773204
0.312718375589
0.354699267965
0.41016424894
0.462926695599
0.512317222265
0.574628298994
0.674322178254
0.795473619048
0.899474749988
0.96305287263
1.00366516341
1.03227167132
1.01402727321
1.00585830567
1.0274049678
1.04615295514
1.06223492456
1.11433343603
1.1861956577
1.24555928708
1.30379998594
1.36666688086
1.42874941281
1.47228506093
1.50856655469
1.54596036979
1.55581307186
1.54368857814
1.54549020654
1.54010010756
1.52649650513
1.5377348096
1.55976092272
1.58980759064
1.6185626119
1.65684464073
1.68799830724
1.68775610879
1.66948013827
1.63936541624
1.61806693086
1.63013858108
1.69159098215
1.79049657553
1.92004668408
1.95902564908
1.78448176948
1.48919098349
1.21229145046
0.985961296827
0.845368620964
0.764033254067
0.684185156702
0.624010119583
0.622409374062
0.647868197432
0.676847191557
0.719165154695
0.766190745013
0.810410996321
0.854976846671
0.904960173138
0.950047274267
0.985463810659
1.04206052351
1.11299841014
1.17570215747
1.2550017761
1.3576991428
1.47313952523
1.55099695427
1.58330756448
1.60743296263
1.62501333475
1.61503108243
1.58395487548
1.576599251
1.59934129779
1.62408494144
1.64388864739
1.6685111096
1.71026668038
1.81047096111
1.8209788762
1.56987446734
1.24189551225
0.973317758926
0.799154401556
0.709070241014
0.676217693656
0.664080295461
0.674762380189
0.711076847834
0.78452201015
0.892862679932
1.01925034913
1.11827805632
1.14551436761
1.14570015468
1.15155427629
1.16894189054
1.18550954227
1.20728192735
1.24305310807
1.28024881184
1.29305532206
1.26862641628
1.24644927091
1.21669105768
1.08753695209
0.897493596499
0.72261376855
0.584303196932
0.468116519036
0.370614017324
0.34271741177
0.361862444996
0.396748050751
0.441646858283
0.450479787329
0.467248218329
0.495305417372
0.523012454262
0.541974474856
0.549648361933
0.560310641818
0.591393112
0.626301890124
0.597112602969
0.488576519225
0.342150198834
0.235366617982
0.193883126536
0.169612050863
0.144642273449
0.147869652007
0.16977745647
0.160496919311
0.133273205965
0.110172612438
0.104350980441
0.118579690605
0.176422536557
0.266838518034
0.318706283349
0.308532337934
0.290467158133
0.270808252615
0.2518333165
0.244631958988
0.250997582196
0.24452353558
0.205856604582
0.167496028921
0.141818133291
0.11692546228
0.101912750389
0.0967686058298
0.0965097417764
0.0967038689746
0.101892126471
0.071300437292
0.15416178032
1.12491950941
0.885111452263
0.920210775869
0.930083218134
0.944132557496
0.94297430339
0.914988954933
0.866671855708
0.821255206193
0.787324148485
0.75758166042
0.698181143387
0.622116956952
0.591016699995
0.565771533181
0.469551455974
0.390917642098
0.404270198521
0.392657849247
0.30155644585
0.221517169126
0.187936891865
0.1637192579
0.160184891169
0.215343168596
0.298638642812
0.365444799359
0.397608883336
0.415809827086
0.453915174555
0.509780679235
0.585102310044
0.671282158885
0.77965233597
0.902246150225
1.00779504443
1.08157938344
1.12635334417
1.15408164449
1.14108525114
1.13254535283
1.15552930415
1.18303897947
1.21543257101
1.2828257395
1.35400869403
1.40198451204
1.44847913577
1.49964295741
1.54273896432
1.58318963057
1.64163998812
1.70658191504
1.74339131655
1.7467289377
1.73595124535
1.70517073982
1.6823169556
1.67997987554
1.69860696032
1.72722409142
1.73665364326
1.74605253145
1.7379229138
1.70393018213
1.68014441198
1.66742051705
1.65852045582
1.65612113283
1.69339516106
1.79524926317
1.97818104279
2.12713390959
2.02220331066
1.7158267194
1.3702312449
1.04072468706
0.804601489607
0.716060231468
0.694527256362
0.664757602256
0.643161348311
0.624644905634
0.623571210645
0.657001590948
0.698489527984
0.743872688526
0.793788755611
0.850573761063
0.919061040859
0.984341336105
1.06714832524
1.16822670645
1.26843102297
1.39251332884
1.53045595634
1.63900597846
1.67959969454
1.67669680344
1.66136141984
1.64458927262
1.62228477854
1.59665557746
1.59800667419
1.61823062233
1.6267261202
1.63499591262
1.66902390178
1.74056433763
1.88720284281
1.94222733619
1.68295630902
1.3208226193
1.03156516232
0.826784500799
0.700760292616
0.659843343403
0.659136634048
0.7033470205
0.774519040869
0.869899939476
0.97543356072
1.08955175355
1.18470213672
1.20813958697
1.20096138923
1.19608502709
1.2078848188
1.23085993141
1.26022525689
1.30306518426
1.34869877527
1.35675356414
1.31633562082
1.29036903288
1.27160854229
1.12764324325
0.893183036038
0.671346456595
0.540901941162
0.473141641347
0.397116359165
0.350136356462
0.346982917443
0.373599973826
0.443888035775
0.473782474243
0.503962532169
0.542041329031
0.578425338801
0.603725260629
0.605419934023
0.595534461837
0.612509237097
0.657057779702
0.659442845668
0.554669176204
0.404568362141
0.294590206206
0.249004041234
0.209775574852
0.161355970824
0.143245931339
0.148318238701
0.129890419069
0.0837979898408
0.050247564946
0.0662766385589
0.117637127267
0.194131516984
0.268559200631
0.283864551455
0.250934772715
0.228381256758
0.227959467196
0.23139230339
0.243490334
0.26348717728
0.269477511891
0.227719705804
0.174832091422
0.13628236948
0.105602459483
0.0886553237155
0.085204308267
0.084748163137
0.0880155789497
0.100016804482
0.0719553057669
0.168119171598
1.26336413694
0.966391845264
0.98966596772
0.991439801399
0.999123518468
1.00830908286
1.00610461241
0.977412368892
0.947160204144
0.925766586267
0.900248824692
0.852908014127
0.805409351272
0.773110387893
0.706184990689
0.595546024496
0.545193937163
0.54489276074
0.449095289776
0.311116405439
0.245685605134
0.210576455567
0.175062917054
0.193530768934
0.270879716833
0.362043722117
0.428154319765
0.4583353113
0.480580339028
0.520919033957
0.587655247224
0.681987142162
0.777498301531
0.873121521204
0.973943504485
1.07407259359
1.16260502264
1.23125960827
1.27862449749
1.29686238415
1.32025255667
1.3470461985
1.35554298542
1.38319291086
1.45060013707
1.50658586535
1.5438648007
1.58982625785
1.64092165996
1.69597795519
1.77559014338
1.86572558826
1.92764902161
1.92961520873
1.88924555743
1.84376026772
1.79310475554
1.75124109787
1.72669525384
1.72558393903
1.71304965673
1.66624248397
1.62074262684
1.56051499495
1.50958465503
1.51154856495
1.56492584952
1.6393537104
1.69172677716
1.7288581943
1.81028831374
1.99950822871
2.21297394654
2.1906697468
1.9216779869
1.56424811028
1.16694498921
0.81692833737
0.641352530124
0.6067770098
0.595443525395
0.56926815588
0.527307025257
0.518572244311
0.56501032783
0.627546362077
0.697561444941
0.76897353554
0.845050756945
0.936323105417
1.02693827458
1.13994311741
1.27506925853
1.40951670268
1.5535649137
1.67818817873
1.7481728754
1.75331382551
1.72720033448
1.68530787542
1.64433390305
1.61389562925
1.59281855142
1.59895908155
1.59966333835
1.58993729938
1.60037532833
1.66101205842
1.780785695
1.97703250668
2.06933724815
1.80951581464
1.41244307541
1.09463532371
0.865177896443
0.701571355885
0.62900345262
0.618901627177
0.671714484378
0.759322743807
0.866157161014
0.964191758931
1.07725325764
1.18999751526
1.23292847939
1.24432421637
1.25610092753
1.28202316205
1.30975921387
1.32288999394
1.32008007771
1.30158829868
1.2847458895
1.2816003297
1.33946924699
1.38407162015
1.25078469356
0.967104506638
0.666009133142
0.495716747338
0.444605091872
0.39927890011
0.341008004257
0.323866832416
0.357721656745
0.461829113489
0.519784284193
0.556933380827
0.593076631196
0.624519286847
0.642172319976
0.62347137997
0.589442102923
0.599232972574
0.656554936453
0.698908789883
0.621390646392
0.469450849588
0.347115347056
0.2803061507
0.215507381493
0.154576899423
0.137279244006
0.139107691291
0.123663136259
0.0647803680021
0.0105636497809
0.0553943607916
0.123876298622
0.201602861897
0.255782576386
0.255714847881
0.210461598351
0.176511920813
0.187037123023
0.209904242071
0.239179252223
0.271075380389
0.282337685579
0.240633926705
0.178506806661
0.129349367515
0.0927040848827
0.0709371936349
0.066544791681
0.0666158467977
0.0765184715125
0.0985421864904
0.0749129530271
0.178306357206
1.47187089196
1.08512331302
1.07124004095
1.05714389246
1.07643325821
1.09792514319
1.10643038306
1.09824448694
1.08607861386
1.07024337062
1.04321749906
1.00835082525
0.982400691536
0.938538241695
0.842039868147
0.744235515172
0.704944320279
0.637557692583
0.482264031172
0.352366789997
0.282714116492
0.203625060085
0.129131087486
0.162473353061
0.264525403687
0.375530397549
0.461258146856
0.50723142101
0.545204427611
0.601518131608
0.677554868579
0.770654605649
0.865760785131
0.957185785955
1.04336370636
1.14077342328
1.24463687001
1.34206836169
1.41944909097
1.46561057364
1.51660347686
1.5662616408
1.57463274496
1.58372905802
1.6211635103
1.64577450938
1.67320752238
1.72651124135
1.80157242201
1.90010602961
1.98986995946
2.03362718085
2.03124110227
1.97322778549
1.89054522248
1.80841516692
1.72591942505
1.67784358309
1.66513752687
1.65423182205
1.60777328886
1.53321935586
1.45839774261
1.37733715695
1.31703832451
1.31441744623
1.38727681926
1.52636374862
1.67718375143
1.78977585011
1.8828933178
2.04686449474
2.24809589458
2.2547385775
2.03512662687
1.71488816107
1.32773764881
0.929252046132
0.633044354566
0.49780660933
0.459958236451
0.447736926642
0.435879199263
0.452683808412
0.523193889255
0.62286716372
0.724573415044
0.809013118145
0.891949627216
0.990509132564
1.09342233941
1.22471714954
1.37120823115
1.49557181426
1.59957516241
1.68904513673
1.74282499118
1.74797525735
1.73914244242
1.7037885674
1.64065394388
1.57826280436
1.5431721449
1.55117774078
1.55042203036
1.5579374574
1.59344959404
1.67166360595
1.81659157316
2.03996220655
2.1564622899
1.89485632186
1.46355461932
1.11570676504
0.885360483381
0.725452569397
0.630158491261
0.588012492834
0.595678108524
0.64702147669
0.74161639643
0.842898800354
0.984146390609
1.14618705586
1.22051136021
1.2349255196
1.2489503721
1.28557933255
1.31934618562
1.32257460257
1.26961892654
1.17985910826
1.14400063696
1.19784902401
1.36558977001
1.50387256931
1.41241434147
1.10651514054
0.739021051412
0.504623245823
0.427421925042
0.383857138761
0.312458917436
0.295583083756
0.352858933269
0.495305345929
0.58197495181
0.619223069572
0.634245940133
0.635879792115
0.623980008509
0.590604365323
0.565154344375
0.590162101145
0.665058287691
0.735405900327
0.682580062701
0.526387928343
0.386738700373
0.295305819091
0.207633224676
0.131265886026
0.13465536966
0.150534982309
0.142137954934
0.0874471536064
0.0448391943687
0.079560628079
0.148201322669
0.212261061255
0.242951738503
0.237438713084
0.193469352994
0.152903567427
0.162562538286
0.198271857638
0.23834438107
0.268130490963
0.273083492057
0.234986984291
0.174527296136
0.123657467637
0.0812076176077
0.0507779180702
0.0422354036713
0.0445080574525
0.0640132205758
0.0988108596331
0.0807860652552
0.18762623675
1.6756828406
1.30153753489
1.2654649408
1.18268554046
1.16392737311
1.1736587077
1.17992838572
1.18456454186
1.18867883283
1.18133699078
1.15614211457
1.12785858252
1.10070975538
1.03933140397
0.949775756043
0.879214718132
0.812219606696
0.676748674923
0.514169243087
0.411412632335
0.316235482567
0.185868809674
0.0504636027984
0.0858516225133
0.226276276643
0.370848670424
0.487222731961
0.557420267459
0.607222890779
0.667485767585
0.74043326986
0.829750233202
0.921786403748
1.00735196025
1.09654090466
1.20708033741
1.3359413304
1.45950104591
1.55480237518
1.61796404449
1.67997819298
1.73136192661
1.74410374593
1.75545384779
1.7847990971
1.81275455875
1.85132127368
1.91282611642
1.99171564517
2.07553394393
2.12625899673
2.11169320919
2.03252926673
1.91831184116
1.82265596209
1.73074373975
1.62385546444
1.57898575961
1.58818175552
1.58492204692
1.54365101624
1.47539521284
1.39563085881
1.31838055096
1.25946245097
1.22384857676
1.24719212327
1.36850291758
1.58787749047
1.82739460881
2.02160340265
2.1875003467
2.30816283334
2.24336022982
2.01665046425
1.75217296704
1.44377711786
1.08852827733
0.737907607689
0.478544097189
0.368555778276
0.365027505654
0.404652920125
0.469144518701
0.549393867829
0.653362773743
0.761892546742
0.84795351955
0.927418095175
1.0149575366
1.10829885274
1.23440031163
1.37895028042
1.49811224397
1.60629589744
1.71401992024
1.75426909985
1.75295275817
1.75432341415
1.70056479794
1.58835042585
1.48976733304
1.45588377565
1.47438968621
1.49423861111
1.53565226998
1.59312426418
1.68960730066
1.85845297332
2.10548332078
2.23836928794
1.95753725655
1.46942480904
1.06649812755
0.820256128506
0.699765181295
0.640379850851
0.585987896036
0.532860206477
0.541653320845
0.634611797164
0.754457621051
0.936142532253
1.13964224333
1.23000874609
1.21877665406
1.18542811809
1.18113228186
1.198022717
1.21059811279
1.16339016287
1.07316269347
1.04177896046
1.1202042887
1.35383168799
1.58359968082
1.54841078392
1.26169687406
0.888847563704
0.603203005413
0.458656455231
0.382451372177
0.29079393987
0.274159340566
0.358328055677
0.53686305646
0.645109392822
0.667746404726
0.640020763845
0.603196903207
0.57500505912
0.55960354272
0.560736334044
0.603392463921
0.692087310995
0.781571237819
0.740536332291
0.574012693272
0.414164947986
0.305448582394
0.201242559494
0.101284323487
0.122198128131
0.171847708451
0.171374513442
0.111951604391
0.0317851156156
0.100889126401
0.178519736616
0.218073666578
0.227928133311
0.227760020526
0.19560249679
0.157568582324
0.158176606652
0.191894528746
0.227537848594
0.242134732165
0.246568058764
0.217203161278
0.164610294065
0.120630474061
0.0772670193586
0.0395509221389
0.0252153379876
0.0305389994381
0.0557480777128
0.100390381254
0.0902667439041
0.194287664759
1.69631226784
1.42113775317
1.47825978616
1.41096069411
1.30158218046
1.24060689972
1.22372355064
1.21927967048
1.23120578078
1.24216772581
1.23409872934
1.20534820705
1.15245098075
1.06591543491
0.99399265559
0.946141909098
0.83751877198
0.671930590011
0.558422656506
0.482460457295
0.354964990933
0.224984226716
0.134554363839
0.113245683106
0.227392874287
0.386139860029
0.524788952955
0.611278016713
0.648531511619
0.682972344479
0.7394544752
0.832092603166
0.942443064177
1.04982889692
1.16704245082
1.30593882416
1.45407237531
1.57385991167
1.64266130548
1.68180848875
1.73594243152
1.79695299486
1.83461045668
1.86403006627
1.91260314986
1.97050639597
2.03724193516
2.11070033617
2.16807470353
2.19533009142
2.16283445609
2.06366464295
1.94116102725
1.83181725445
1.75422737501
1.68124734568
1.59232581866
1.54384759587
1.52855791461
1.49647942634
1.4398075683
1.41336334433
1.38864025946
1.33687023564
1.28442669903
1.22454061179
1.18513439742
1.23933561175
1.45265714994
1.78578997549
2.09661583878
2.32863455813
2.42657843539
2.29007926479
1.99675128855
1.72270740919
1.4818556492
1.20572239213
0.881670350539
0.562261336535
0.365915630095
0.353427253419
0.438670638783
0.526447328005
0.574919173304
0.625990602825
0.713794131811
0.818324790128
0.922406686825
1.01527628685
1.10014846348
1.2238213649
1.38593949503
1.54202705817
1.70629584653
1.83370801874
1.84296723559
1.80435213651
1.74475403309
1.61925094865
1.4705973823
1.3815661541
1.37365364517
1.39390040641
1.41132613829
1.45036821827
1.51332718197
1.65867857059
1.89777014118
2.21705900558
2.37950627636
2.08678359409
1.55167035359
1.07935271149
0.761989330302
0.628515629173
0.610712848981
0.582969333676
0.518228841514
0.517304246852
0.616992663497
0.760897273773
0.967204354211
1.19390207663
1.29198385314