/*--------------------------------*- C++ -*----------------------------------*\
  =========                 |
  \\      /  F ield         | OpenFOAM: The Open Source CFD Toolbox
   \\    /   O peration     | Website:  https://openfoam.org
    \\  /    A nd           | Version:  8
     \\/     M anipulation  |
\*---------------------------------------------------------------------------*/
FoamFile
{
    version     2.0;
    format      ascii;
    class       volScalarField;
    location    "0.000664";
    object      mixAlpha;
}
// * * * * * * * * * * * * * * * * * * * * * * * * * * * * * * * * * * * * * //

dimensions      [1 -1 -1 0 0 0 0];

internalField   nonuniform List<scalar> 
22800
(
1.4201453603e-10
1.42019023855e-10
1.42024601501e-10
1.4203273535e-10
1.42041276911e-10
1.42048528153e-10
1.42054625161e-10
1.4206005276e-10
1.42065453914e-10
1.42071200479e-10
1.42077442642e-10
1.42084207266e-10
1.42091170454e-10
1.42098235402e-10
1.42104237648e-10
1.4210923054e-10
1.42113759264e-10
1.42118299838e-10
1.4212288132e-10
1.42127153713e-10
1.42130679184e-10
1.42133445316e-10
1.42135260986e-10
1.42135918725e-10
1.42135794659e-10
1.42135126221e-10
1.42133811161e-10
1.42131824139e-10
1.42129194254e-10
1.42125862315e-10
1.42121556991e-10
1.42116052364e-10
1.42109534339e-10
1.42101998747e-10
1.42093437265e-10
1.4208377937e-10
1.42073424662e-10
1.42062305898e-10
1.42051467744e-10
1.42041285578e-10
1.42031070235e-10
1.42020839796e-10
1.42010215973e-10
1.42000593076e-10
1.41989528632e-10
1.41977678583e-10
1.41964530635e-10
1.41950267513e-10
1.41935262937e-10
1.41920348568e-10
1.41905703445e-10
1.41890895743e-10
1.41876096727e-10
1.41861815002e-10
1.4184876893e-10
1.41838273987e-10
1.4183060793e-10
1.41824691445e-10
1.41819958791e-10
1.4181677814e-10
1.41815497688e-10
1.41815614629e-10
1.41817584484e-10
1.41822334508e-10
1.41829568135e-10
1.41839612727e-10
1.41853356377e-10
1.41871475528e-10
1.41894572084e-10
1.41923150733e-10
1.41957621572e-10
1.41998520869e-10
1.42046612364e-10
1.420953378e-10
1.42138756512e-10
1.42174206642e-10
1.42201302804e-10
1.42220590331e-10
1.42232627338e-10
1.42238514414e-10
1.42240288269e-10
1.4223965444e-10
1.42237205938e-10
1.42233027933e-10
1.4222669123e-10
1.42217621883e-10
1.42205796334e-10
1.42190458097e-10
1.42170504327e-10
1.4214757586e-10
1.42122634583e-10
1.42097353291e-10
1.42073444625e-10
1.42048374535e-10
1.42021447416e-10
1.41991171423e-10
1.41956485094e-10
1.41920551308e-10
1.41890305856e-10
1.41867773981e-10
1.4185308229e-10
1.41844909783e-10
1.41841284298e-10
1.41841090473e-10
1.41843038752e-10
1.4184964148e-10
1.41864418925e-10
1.4189076501e-10
1.41931693381e-10
1.41991100376e-10
1.4206285748e-10
1.42134381063e-10
1.4218420623e-10
1.42215535968e-10
1.42233308662e-10
1.42242216023e-10
1.42245418361e-10
1.42244721015e-10
1.422401177e-10
1.42228242671e-10
1.42206001112e-10
1.42172045231e-10
1.42126037553e-10
1.42071330503e-10
1.42013997145e-10
1.41968033825e-10
1.41934501094e-10
1.4191287137e-10
1.419012946e-10
1.41896839372e-10
1.41896852107e-10
1.41900004702e-10
1.41909737029e-10
1.41929805358e-10
1.41965427786e-10
1.42013720726e-10
1.42071879362e-10
1.42115610094e-10
1.42142417536e-10
1.42155809989e-10
1.42159810563e-10
1.42157662928e-10
1.42149504749e-10
1.42131820293e-10
1.42100286143e-10
1.42055812405e-10
1.42003832351e-10
1.4196216918e-10
1.41935707413e-10
1.41921200062e-10
1.41915010572e-10
1.41915102336e-10
1.41920251787e-10
1.41934331813e-10
1.41960528612e-10
1.41998188558e-10
1.4203683105e-10
1.42059979067e-10
1.42070312103e-10
1.42072333692e-10
1.42068772775e-10
1.42059213138e-10
1.42041809835e-10
1.42014840624e-10
1.41983921411e-10
1.41959756054e-10
1.41945510132e-10
1.41937263237e-10
1.41934244384e-10
1.41937285446e-10
1.4194751345e-10
1.41964445377e-10
1.41982993582e-10
1.41994098779e-10
1.419983736e-10
1.41998115509e-10
1.41994627223e-10
1.41985906577e-10
1.41973296211e-10
1.41962089647e-10
1.41956904079e-10
1.41955956937e-10
1.41957522797e-10
1.41961556545e-10
1.41968873589e-10
1.41978425539e-10
1.41985630137e-10
1.41989338742e-10
1.41991173291e-10
1.41990086275e-10
1.42015917194e-10
1.42023405359e-10
1.42032250437e-10
1.42043423244e-10
1.42054445413e-10
1.42063778491e-10
1.42071912076e-10
1.42079552506e-10
1.42087002233e-10
1.42094522313e-10
1.4210246249e-10
1.42110931999e-10
1.42119646392e-10
1.42128230346e-10
1.42135829989e-10
1.42142194398e-10
1.42147952791e-10
1.42153636885e-10
1.42159231165e-10
1.42164442062e-10
1.42168865228e-10
1.42172391087e-10
1.42174972964e-10
1.42176581083e-10
1.42177213307e-10
1.42176942858e-10
1.42176051063e-10
1.42174517134e-10
1.42172408965e-10
1.42169719547e-10
1.42166122898e-10
1.4216131317e-10
1.42155354238e-10
1.42148209582e-10
1.42139931169e-10
1.42130489466e-10
1.42120372549e-10
1.42109513934e-10
1.42098850555e-10
1.42088912126e-10
1.42079032576e-10
1.4206904446e-10
1.42058485344e-10
1.4204878941e-10
1.42037444937e-10
1.42025082418e-10
1.42011475029e-10
1.41996473536e-10
1.41980378514e-10
1.41963803922e-10
1.41947173918e-10
1.41930490815e-10
1.41913572251e-10
1.41896932942e-10
1.4188143233e-10
1.41868654698e-10
1.41859436331e-10
1.4185253399e-10
1.41847120213e-10
1.41843412312e-10
1.41841585717e-10
1.41841575987e-10
1.41842949285e-10
1.41847225423e-10
1.41854720549e-10
1.41865072829e-10
1.41879089275e-10
1.41897576441e-10
1.41921381453e-10
1.41951002386e-10
1.41986886833e-10
1.42029208671e-10
1.42078547426e-10
1.42129104022e-10
1.42172599646e-10
1.42207151188e-10
1.42234156606e-10
1.42253734744e-10
1.42266511332e-10
1.42273248335e-10
1.42275555596e-10
1.42275248605e-10
1.4227317696e-10
1.42268829983e-10
1.42261391724e-10
1.42250483513e-10
1.4223629592e-10
1.42218768101e-10
1.42198107705e-10
1.42175170031e-10
1.42150249767e-10
1.42124914316e-10
1.42100746525e-10
1.42076066761e-10
1.42049716374e-10
1.42020443696e-10
1.41986898638e-10
1.41951101621e-10
1.41919162733e-10
1.41894668815e-10
1.41878767764e-10
1.41870753014e-10
1.41867707276e-10
1.41867297941e-10
1.41868321369e-10
1.41873935978e-10
1.41888009779e-10
1.41914246283e-10
1.419557839e-10
1.4201677962e-10
1.42089734855e-10
1.42161929575e-10
1.42211667914e-10
1.42242877984e-10
1.42260533992e-10
1.4226984467e-10
1.42273936024e-10
1.4227267859e-10
1.42265502566e-10
1.42250477887e-10
1.42225561993e-10
1.42190052207e-10
1.42142951207e-10
1.42087548452e-10
1.42029626866e-10
1.41983025398e-10
1.41948914342e-10
1.41927178861e-10
1.41915988713e-10
1.41911874276e-10
1.41911700345e-10
1.41914167451e-10
1.41923228184e-10
1.41942555252e-10
1.41977638766e-10
1.42025330762e-10
1.42083470186e-10
1.42126812471e-10
1.4215275558e-10
1.42165299477e-10
1.42168820979e-10
1.42165864789e-10
1.42156226383e-10
1.42137311365e-10
1.42104605497e-10
1.42059038447e-10
1.42005378588e-10
1.41962868231e-10
1.41936228133e-10
1.41921709352e-10
1.41915053728e-10
1.41915056791e-10
1.41919659497e-10
1.41932594191e-10
1.41957325624e-10
1.41994900589e-10
1.42032482448e-10
1.42054942366e-10
1.4206498337e-10
1.42067197588e-10
1.42063050612e-10
1.42051916011e-10
1.42033924836e-10
1.42007589733e-10
1.41977204167e-10
1.41953502842e-10
1.41938890943e-10
1.41928913634e-10
1.41925614173e-10
1.41929649236e-10
1.4194122402e-10
1.41959086867e-10
1.41978086691e-10
1.41989167905e-10
1.41993003704e-10
1.41991813329e-10
1.41986931139e-10
1.41977527837e-10
1.41965313799e-10
1.41955510134e-10
1.41951267843e-10
1.41950846787e-10
1.41952686844e-10
1.419572727e-10
1.41965196025e-10
1.41975422053e-10
1.41983250446e-10
1.41987773336e-10
1.41990435815e-10
1.41989603578e-10
1.42019149617e-10
1.42032882716e-10
1.42048180668e-10
1.42065598679e-10
1.42082120223e-10
1.42096538566e-10
1.42109665795e-10
1.42122213998e-10
1.42134403158e-10
1.42146504091e-10
1.42158722698e-10
1.421705298e-10
1.42181737539e-10
1.42192488574e-10
1.42202286735e-10
1.4221064195e-10
1.42218199939e-10
1.42225657511e-10
1.42232967272e-10
1.42239668354e-10
1.42245404472e-10
1.42250052902e-10
1.42253741011e-10
1.42256438408e-10
1.42257908636e-10
1.42257946401e-10
1.42257231692e-10
1.42255841162e-10
1.42253846361e-10
1.42251410685e-10
1.42248132007e-10
1.42243618242e-10
1.42237852934e-10
1.42230765087e-10
1.42222387782e-10
1.42212495223e-10
1.42201494618e-10
1.42189443023e-10
1.4217747734e-10
1.42166154438e-10
1.42155121955e-10
1.42144136304e-10
1.42132436046e-10
1.42121606493e-10
1.42109335657e-10
1.42096018422e-10
1.42081251343e-10
1.42064928579e-10
1.42047476852e-10
1.42029407462e-10
1.42010997449e-10
1.41992112933e-10
1.41972462641e-10
1.41952603849e-10
1.41933513629e-10
1.41917231177e-10
1.41905311001e-10
1.41896244537e-10
1.41888860917e-10
1.41883419273e-10
1.41880215105e-10
1.41879355237e-10
1.41879773031e-10
1.41882822086e-10
1.41889839618e-10
1.41900703626e-10
1.41916456836e-10
1.41937545834e-10
1.41964740373e-10
1.41998288804e-10
1.42039144452e-10
1.42087990845e-10
1.4214496262e-10
1.42201164001e-10
1.4224852296e-10
1.42286092668e-10
1.42314967213e-10
1.42335825445e-10
1.42349690942e-10
1.42357480943e-10
1.42360552093e-10
1.42360495367e-10
1.4235831058e-10
1.42352929032e-10
1.42343648165e-10
1.42330398812e-10
1.42313507828e-10
1.42293146515e-10
1.42269816339e-10
1.42244796305e-10
1.42218163487e-10
1.42191974816e-10
1.4216694227e-10
1.42142069727e-10
1.4211566843e-10
1.42086473823e-10
1.420528771e-10
1.4201596526e-10
1.41980693473e-10
1.41952373099e-10
1.41932812466e-10
1.41922258753e-10
1.41917375194e-10
1.41915258262e-10
1.41915492965e-10
1.41920213007e-10
1.41934268831e-10
1.41961938057e-10
1.42006204198e-10
1.4207084856e-10
1.42148113372e-10
1.42224387944e-10
1.4227685949e-10
1.4231006561e-10
1.42329163901e-10
1.42339140966e-10
1.42341670098e-10
1.42337799236e-10
1.4232729521e-10
1.42307952001e-10
1.42278554975e-10
1.42239286747e-10
1.42189656026e-10
1.42133711046e-10
1.42074985337e-10
1.42026911959e-10
1.41990634188e-10
1.41966539647e-10
1.41953405661e-10
1.41947778226e-10
1.41946107194e-10
1.41947919175e-10
1.41956213596e-10
1.41974880464e-10
1.42010227394e-10
1.42058754505e-10
1.42118836064e-10
1.42163364796e-10
1.42188536497e-10
1.42199238448e-10
1.422009778e-10
1.42196090683e-10
1.42183417308e-10
1.42161557724e-10
1.42125937587e-10
1.42078176835e-10
1.42021565972e-10
1.41976500242e-10
1.41947344786e-10
1.41930307194e-10
1.41920412826e-10
1.41919211109e-10
1.41923287267e-10
1.419350965e-10
1.419578123e-10
1.41996045429e-10
1.42033496588e-10
1.4205561962e-10
1.42065084407e-10
1.42066972771e-10
1.42061632731e-10
1.42048127328e-10
1.42027425207e-10
1.41999093129e-10
1.41967022601e-10
1.41941656093e-10
1.41925331786e-10
1.41912813104e-10
1.41909294544e-10
1.41913908876e-10
1.41926507975e-10
1.41945112498e-10
1.41964592692e-10
1.41975248451e-10
1.41978069872e-10
1.4197634895e-10
1.41971599189e-10
1.41963305196e-10
1.41951845486e-10
1.419420199e-10
1.41937998567e-10
1.41937874519e-10
1.41940350581e-10
1.41946170313e-10
1.41955615675e-10
1.41967532596e-10
1.4197734131e-10
1.41984229108e-10
1.41988977549e-10
1.41988588722e-10
1.42022575413e-10
1.42043123081e-10
1.42064600769e-10
1.42087334495e-10
1.42109152516e-10
1.42129263774e-10
1.42148384155e-10
1.42166978621e-10
1.42185191839e-10
1.42203292699e-10
1.42221198011e-10
1.4223796137e-10
1.42253515948e-10
1.42268420174e-10
1.42282139403e-10
1.42293831824e-10
1.42304388557e-10
1.42314719904e-10
1.42324601149e-10
1.42333345301e-10
1.42340887586e-10
1.42347243516e-10
1.42352473054e-10
1.42356374678e-10
1.42358726629e-10
1.42359141138e-10
1.42358536525e-10
1.42357267176e-10
1.42355262725e-10
1.42352864554e-10
1.42349690869e-10
1.42345286772e-10
1.42339441759e-10
1.42331886253e-10
1.42322567767e-10
1.42311308888e-10
1.42298405693e-10
1.42283937764e-10
1.4226935507e-10
1.42255336727e-10
1.42241356964e-10
1.42227535101e-10
1.42212870434e-10
1.42198139787e-10
1.42182117496e-10
1.42165188379e-10
1.42146986626e-10
1.42127490463e-10
1.42107225059e-10
1.42086501081e-10
1.42065301978e-10
1.42043213559e-10
1.42020567929e-10
1.41998200355e-10
1.41976003272e-10
1.41955905887e-10
1.41940324067e-10
1.41928230654e-10
1.41918032152e-10
1.41910376846e-10
1.41905404643e-10
1.41902887482e-10
1.41901828273e-10
1.41903516483e-10
1.41909848815e-10
1.41921629663e-10
1.41939530438e-10
1.41963794938e-10
1.41995038493e-10
1.42033994387e-10
1.42082497171e-10
1.42141475619e-10
1.42211456461e-10
1.42281531421e-10
1.42340075824e-10
1.42386171592e-10
1.42420943713e-10
1.42445222807e-10
1.42460581641e-10
1.42469559751e-10
1.42474012646e-10
1.42474368124e-10
1.42472035385e-10
1.42466071034e-10
1.42455212229e-10
1.42439664859e-10
1.4241982653e-10
1.42396283759e-10
1.42369546963e-10
1.42341078913e-10
1.42311149564e-10
1.42282677178e-10
1.42255821269e-10
1.4222864749e-10
1.42199306332e-10
1.4216713448e-10
1.42130759589e-10
1.42090896136e-10
1.42051466605e-10
1.42017496121e-10
1.41991606672e-10
1.41975880844e-10
1.41967439551e-10
1.41962987609e-10
1.41962594807e-10
1.41967072881e-10
1.41981958506e-10
1.42012178534e-10
1.42060850103e-10
1.42132625312e-10
1.42219276507e-10
1.42306506891e-10
1.42366302383e-10
1.42404128995e-10
1.42425649391e-10
1.42435974023e-10
1.42437668566e-10
1.42432431634e-10
1.42418483282e-10
1.42394052794e-10
1.42359522868e-10
1.42316039737e-10
1.42262842128e-10
1.42203637677e-10
1.42141675204e-10
1.42089994919e-10
1.42049201371e-10
1.42019864721e-10
1.42001662356e-10
1.41990721438e-10
1.41983878599e-10
1.41983832168e-10
1.41991044862e-10
1.42011092071e-10
1.42051010106e-10
1.42104698608e-10
1.42170543637e-10
1.42218921389e-10
1.42244966064e-10
1.42254265926e-10
1.42254100773e-10
1.4224730028e-10
1.42231821944e-10
1.42206724835e-10
1.42167089519e-10
1.42114953735e-10
1.42053301487e-10
1.42003168716e-10
1.41968957728e-10
1.41946784141e-10
1.41932418096e-10
1.41928923693e-10
1.4193171945e-10
1.41942204617e-10
1.4196324984e-10
1.42002189955e-10
1.42042023531e-10
1.42065967149e-10
1.42076319533e-10
1.42077962339e-10
1.42071035605e-10
1.42054266199e-10
1.42028837388e-10
1.41995846304e-10
1.41959027861e-10
1.41928814513e-10
1.41909115402e-10
1.41896198931e-10
1.41894205633e-10
1.41898872632e-10
1.41911174911e-10
1.41929316095e-10
1.41948790214e-10
1.41959534193e-10
1.41963770953e-10
1.41963763573e-10
1.41960824548e-10
1.41953726008e-10
1.41941880453e-10
1.41930059927e-10
1.41924718464e-10
1.41924130778e-10
1.41927014152e-10
1.41934161806e-10
1.41945727238e-10
1.41959799943e-10
1.41971859386e-10
1.41981008467e-10
1.41987900733e-10
1.41988087417e-10
1.42025767711e-10
1.42052192082e-10
1.42077911378e-10
1.42104469734e-10
1.42130667173e-10
1.4215612315e-10
1.42180861999e-10
1.42205149551e-10
1.42229096327e-10
1.42252869187e-10
1.4227611048e-10
1.42298008428e-10
1.42318950138e-10
1.42339616298e-10
1.42358892462e-10
1.42375821182e-10
1.42391724564e-10
1.42407295283e-10
1.42421647755e-10
1.42434002098e-10
1.42444985138e-10
1.42454833649e-10
1.42463040858e-10
1.42469233142e-10
1.42473521709e-10
1.42475286503e-10
1.42475396544e-10
1.42474719971e-10
1.42473019569e-10
1.4247048916e-10
1.42466801921e-10
1.42461364074e-10
1.42453701766e-10
1.42443545598e-10
1.42431154476e-10
1.42416652212e-10
1.42400164167e-10
1.42381493004e-10
1.42362241786e-10
1.42343407335e-10
1.42324340729e-10
1.42305574598e-10
1.42286151464e-10
1.42266060573e-10
1.42244574016e-10
1.42222462086e-10
1.42199385846e-10
1.42175327152e-10
1.42150561993e-10
1.42125290416e-10
1.42099156199e-10
1.42071610877e-10
1.42044118915e-10
1.42018494158e-10
1.41994294459e-10
1.4197211468e-10
1.41953999883e-10
1.41939481525e-10
1.4192731364e-10
1.41918120294e-10
1.4191241283e-10
1.41909677737e-10
1.41908183922e-10
1.41909662423e-10
1.41916169104e-10
1.41928826063e-10
1.41947835321e-10
1.41973861578e-10
1.42008383625e-10
1.42053465923e-10
1.42109938724e-10
1.42178877564e-10
1.42262294264e-10
1.42349838152e-10
1.42424501526e-10
1.42483843573e-10
1.42529161182e-10
1.42560478305e-10
1.42578969328e-10
1.42588939793e-10
1.4259466671e-10
1.42596483152e-10
1.42595082868e-10
1.42590001132e-10
1.42578746173e-10
1.42561456964e-10
1.42538724597e-10
1.42511779099e-10
1.4248119753e-10
1.42448330715e-10
1.42413537766e-10
1.42378806574e-10
1.42346404633e-10
1.42312646599e-10
1.42276135021e-10
1.4223713051e-10
1.421946147e-10
1.42149330691e-10
1.42105593127e-10
1.42067036547e-10
1.42034827218e-10
1.42012239177e-10
1.41998974907e-10
1.41992805669e-10
1.41992570983e-10
1.41998044685e-10
1.42015299465e-10
1.42049697871e-10
1.4210472603e-10
1.42185484098e-10
1.42285842291e-10
1.42389399132e-10
1.42461990808e-10
1.4250849572e-10
1.42534550963e-10
1.42546020059e-10
1.42547229536e-10
1.42540952412e-10
1.42524488227e-10
1.42496600027e-10
1.42457623746e-10
1.42408744215e-10
1.42349681162e-10
1.42283575504e-10
1.42213773521e-10
1.42154623548e-10
1.42106500504e-10
1.42069541605e-10
1.42043847099e-10
1.42025665292e-10
1.42013788562e-10
1.42012464252e-10
1.42020139948e-10
1.42043548592e-10
1.42090342352e-10
1.42153355954e-10
1.42230370295e-10
1.42286310234e-10
1.42314404518e-10
1.42322364208e-10
1.42320615981e-10
1.42311955315e-10
1.42294595033e-10
1.42266861626e-10
1.42222571924e-10
1.42163716369e-10
1.420931839e-10
1.42032822073e-10
1.41989914764e-10
1.41960582141e-10
1.41941355342e-10
1.41935892539e-10
1.41938334618e-10
1.41949350965e-10
1.41972340045e-10
1.42014117309e-10
1.42058965535e-10
1.42086180547e-10
1.4209785061e-10
1.42099834429e-10
1.4209141654e-10
1.42070846887e-10
1.42039326561e-10
1.41999314245e-10
1.41956006014e-10
1.41919384457e-10
1.41894890897e-10
1.41881512631e-10
1.41881158112e-10
1.41885844481e-10
1.41896947661e-10
1.41913166852e-10
1.41932633999e-10
1.41946102887e-10
1.41954361855e-10
1.41956895094e-10
1.4195545659e-10
1.41948585681e-10
1.41935338951e-10
1.41920785807e-10
1.4191338963e-10
1.41911963822e-10
1.4191514304e-10
1.41923396623e-10
1.41936972617e-10
1.41953222657e-10
1.41967668564e-10
1.41978951378e-10
1.41987624928e-10
1.41988167128e-10
1.42028208039e-10
1.42059182732e-10
1.42088283699e-10
1.42117992704e-10
1.42148078145e-10
1.42178461449e-10
1.42208247726e-10
1.4223740929e-10
1.42266070488e-10
1.42294408447e-10
1.42322114422e-10
1.42348779407e-10
1.42374943055e-10
1.42400702568e-10
1.42424665288e-10
1.42446956467e-10
1.42468684201e-10
1.42489400205e-10
1.42507858001e-10
1.42524215376e-10
1.42539331771e-10
1.42553233616e-10
1.42564842358e-10
1.4257421647e-10
1.42581593985e-10
1.4258581229e-10
1.42587509497e-10
1.42587547704e-10
1.42586618015e-10
1.42584286198e-10
1.42580194632e-10
1.42573619683e-10
1.42564243617e-10
1.42551795335e-10
1.42536836951e-10
1.42519056942e-10
1.42498564314e-10
1.42475075615e-10
1.42450067725e-10
1.42424610242e-10
1.42398912286e-10
1.42373890319e-10
1.42348751624e-10
1.42322973069e-10
1.42296052221e-10
1.42268581937e-10
1.42240023809e-10
1.42210355631e-10
1.42179662411e-10
1.42148152159e-10
1.42115408864e-10
1.42081801787e-10
1.42049038945e-10
1.42018733992e-10
1.41991102581e-10
1.41966309667e-10
1.419455759e-10
1.41928088911e-10
1.4191369539e-10
1.4190253152e-10
1.41895973477e-10
1.41893701369e-10
1.41893273224e-10
1.41895819052e-10
1.41904065824e-10
1.41918728943e-10
1.41939733849e-10
1.41968972101e-10
1.42008639984e-10
1.42060948471e-10
1.4212756489e-10
1.42208915918e-10
1.42304513176e-10
1.42406346708e-10
1.42495305001e-10
1.42567727591e-10
1.42624894648e-10
1.4266627803e-10
1.42691948253e-10
1.42705077945e-10
1.42712095328e-10
1.42715715347e-10
1.42715341559e-10
1.42711351391e-10
1.42700891384e-10
1.4268318653e-10
1.42658204339e-10
1.42627508863e-10
1.42592154058e-10
1.42553328165e-10
1.42511836914e-10
1.42468166766e-10
1.42426036701e-10
1.42382757411e-10
1.42337194499e-10
1.42289294436e-10
1.42238465108e-10
1.42185531714e-10
1.42135814424e-10
1.42092493057e-10
1.42055778056e-10
1.42028494106e-10
1.42011179582e-10
1.42003116816e-10
1.42003038491e-10
1.42009865694e-10
1.4203000518e-10
1.42069190528e-10
1.42131731115e-10
1.42223776681e-10
1.42339664529e-10
1.42462196411e-10
1.42550487569e-10
1.42607520148e-10
1.4263917085e-10
1.42652441503e-10
1.42653886835e-10
1.42647323151e-10
1.42629755119e-10
1.42599836026e-10
1.42557257468e-10
1.42503000648e-10
1.4243618906e-10
1.42359913885e-10
1.42277203545e-10
1.42205581629e-10
1.42147378974e-10
1.4210242968e-10
1.42070233291e-10
1.4204767003e-10
1.42034767667e-10
1.42034656664e-10
1.42043882914e-10
1.42069516657e-10
1.4212022281e-10
1.42191852615e-10
1.42282328813e-10
1.42349377026e-10
1.42382876833e-10
1.42392276912e-10
1.423901611e-10
1.42379932568e-10
1.42360473389e-10
1.42329778441e-10
1.42279652315e-10
1.42211760115e-10
1.42128945144e-10
1.42055963684e-10
1.42003433409e-10
1.41967518714e-10
1.4194446535e-10
1.41937747202e-10
1.41940497125e-10
1.41952906424e-10
1.41980014626e-10
1.42027908643e-10
1.42081226169e-10
1.42113705732e-10
1.42126664657e-10
1.42128438956e-10
1.42118431055e-10
1.42093743582e-10
1.42056014163e-10
1.42008406942e-10
1.41957589251e-10
1.41913697677e-10
1.41883782687e-10
1.41868889164e-10
1.41868938719e-10
1.41873335785e-10
1.41883231012e-10
1.41898825843e-10
1.41920736898e-10
1.41938450372e-10
1.41950159031e-10
1.41954749992e-10
1.41954039739e-10
1.4194644936e-10
1.41930928802e-10
1.41913256379e-10
1.41903939209e-10
1.41901796235e-10
1.41905116328e-10
1.41914115585e-10
1.41929262923e-10
1.41947549556e-10
1.41964376719e-10
1.41977664974e-10
1.41987726776e-10
1.41988619902e-10
1.4203023566e-10
1.42065067473e-10
1.42097537522e-10
1.42130633939e-10
1.42164255081e-10
1.42198814467e-10
1.42233342406e-10
1.42267022698e-10
1.42299975289e-10
1.4233237695e-10
1.42364097743e-10
1.42395098009e-10
1.42425730513e-10
1.42455571971e-10
1.42483633425e-10
1.42510558115e-10
1.4253688507e-10
1.42561210637e-10
1.42582825796e-10
1.42603017949e-10
1.42621974835e-10
1.42638815589e-10
1.42653021524e-10
1.42665271839e-10
1.42675223033e-10
1.42681692644e-10
1.42684919779e-10
1.42685833492e-10
1.4268527901e-10
1.42683106557e-10
1.42678897536e-10
1.42671917763e-10
1.42661984681e-10
1.42648286401e-10
1.42631350035e-10
1.4261061759e-10
1.42586364241e-10
1.4255835516e-10
1.42527750954e-10
1.42495652348e-10
1.42462890435e-10
1.42430569429e-10
1.42398427208e-10
1.4236581647e-10
1.42332610619e-10
1.42299357112e-10
1.42264961731e-10
1.42229390035e-10
1.4219290903e-10
1.42155600062e-10
1.42117464739e-10
1.42078759019e-10
1.42040497807e-10
1.42004238091e-10
1.41970741314e-10
1.41941143424e-10
1.41915926142e-10
1.4189497431e-10
1.41878684671e-10
1.41866277897e-10
1.41859509989e-10
1.41857974419e-10
1.41858905692e-10
1.41864007185e-10
1.41875224765e-10
1.41892367339e-10
1.41916688347e-10
1.41951227901e-10
1.41998857392e-10
1.42061207821e-10
1.42139613895e-10
1.42234382313e-10
1.42343651035e-10
1.4245817411e-10
1.42558009738e-10
1.42640128131e-10
1.42706505408e-10
1.4275803536e-10
1.42793947157e-10
1.42814584467e-10
1.42824759924e-10
1.42829201754e-10
1.42828632661e-10
1.42824286728e-10
1.42814326723e-10
1.42796675816e-10
1.42770167097e-10
1.42735862805e-10
1.42695288545e-10
1.4264995108e-10
1.42601356763e-10
1.42549416712e-10
1.42497466726e-10
1.42444016125e-10
1.4238813684e-10
1.42329646701e-10
1.42267841309e-10
1.42205034827e-10
1.42148695621e-10
1.42101326111e-10
1.42062618792e-10
1.42033276643e-10
1.42013510729e-10
1.42004158732e-10
1.42004666725e-10
1.42013063944e-10
1.42035090505e-10
1.42077981022e-10
1.42147299405e-10
1.42250501155e-10
1.4238254646e-10
1.42523608089e-10
1.42628033028e-10
1.42696413437e-10
1.42733659783e-10
1.42748709084e-10
1.42751072286e-10
1.42745327679e-10
1.42729146544e-10
1.42699134747e-10
1.42653869432e-10
1.42594125715e-10
1.4251785364e-10
1.42428729972e-10
1.42330777648e-10
1.42243990411e-10
1.42173846201e-10
1.42120400746e-10
1.42082860884e-10
1.42058953974e-10
1.42047747125e-10
1.42050094382e-10
1.42061521023e-10
1.42087705512e-10
1.42138556094e-10
1.42214636706e-10
1.42315560015e-10
1.42394255751e-10
1.42437046437e-10
1.42452749035e-10
1.42453982475e-10
1.42444252249e-10
1.42422259273e-10
1.42387197926e-10
1.42330144144e-10
1.42252740145e-10
1.42157382975e-10
1.42072920245e-10
1.42012152129e-10
1.41970842467e-10
1.41944646715e-10
1.41936391204e-10
1.41938948636e-10
1.41952112466e-10
1.41981987472e-10
1.42036094962e-10
1.42098649787e-10
1.4213702836e-10
1.4215168024e-10
1.42153327229e-10
1.4214334502e-10
1.4211751173e-10
1.42076267773e-10
1.42022567638e-10
1.41963354417e-10
1.41910858719e-10
1.418750898e-10
1.41857557422e-10
1.41856780778e-10
1.41860095107e-10
1.41869544799e-10
1.41886941666e-10
1.41912263554e-10
1.41933871201e-10
1.41947683914e-10
1.41953138789e-10
1.41952537811e-10
1.41943864446e-10
1.4192563354e-10
1.41904860982e-10
1.41894079254e-10
1.418916998e-10
1.41895332047e-10
1.41905106658e-10
1.41921674691e-10
1.41941924412e-10
1.41961086971e-10
1.41976488921e-10
1.41988061346e-10
1.41989148388e-10
1.42032514426e-10
1.42071386123e-10
1.42107472178e-10
1.42144162541e-10
1.42181382928e-10
1.42219747991e-10
1.42258310674e-10
1.42296049038e-10
1.42332810543e-10
1.42368863945e-10
1.42404233065e-10
1.42439083244e-10
1.42473390508e-10
1.42506531563e-10
1.42538131585e-10
1.42568889587e-10
1.42598503518e-10
1.42625178363e-10
1.42649409253e-10
1.42672882472e-10
1.42694542828e-10
1.42713232146e-10
1.42729478079e-10
1.42744153819e-10
1.42756116538e-10
1.42764120555e-10
1.42768358594e-10
1.42769561951e-10
1.42768966156e-10
1.42766846791e-10
1.4276260586e-10
1.42755712131e-10
1.42745585525e-10
1.42731198446e-10
1.4271248701e-10
1.42689077966e-10
1.42661409272e-10
1.42629636763e-10
1.42594844727e-10
1.42557828139e-10
1.42519831446e-10
1.42482310662e-10
1.4244451404e-10
1.42405571851e-10
1.4236602489e-10
1.4232619221e-10
1.42284869327e-10
1.42242324486e-10
1.42199124762e-10
1.4215517144e-10
1.42110717899e-10
1.4206545089e-10
1.42020356566e-10
1.41978000923e-10
1.41938938028e-10
1.4190442626e-10
1.41874952109e-10
1.41850927499e-10
1.41833284703e-10
1.41821760045e-10
1.41816516594e-10
1.41814955788e-10
1.41816131193e-10
1.41823797066e-10
1.41839267725e-10
1.41861125847e-10
1.41891660377e-10
1.41933394296e-10
1.41988929198e-10
1.42060324869e-10
1.42148598105e-10
1.42254705511e-10
1.42377251363e-10
1.42504514389e-10
1.4261510319e-10
1.42705827421e-10
1.42779958484e-10
1.428399483e-10
1.42885384625e-10
1.42914533873e-10
1.42929388202e-10
1.42934424993e-10
1.42932849854e-10
1.42927024665e-10
1.42916504313e-10
1.42898791707e-10
1.42872059872e-10
1.42836073983e-10
1.42791755123e-10
1.42740983771e-10
1.4268582912e-10
1.42626398098e-10
1.42565754194e-10
1.42503307799e-10
1.42438228539e-10
1.42368497523e-10
1.42293505586e-10
1.42219519693e-10
1.42154776334e-10
1.42102902354e-10
1.42061806956e-10
1.42030539028e-10
1.42009082176e-10
1.41998994898e-10
1.41999433288e-10
1.42008899222e-10
1.42033489133e-10
1.42081079608e-10
1.4215834208e-10
1.42273514057e-10
1.42422296076e-10
1.42581428097e-10
1.42700221681e-10
1.42778133982e-10
1.42820002576e-10
1.42836270191e-10
1.42839251875e-10
1.42834456312e-10
1.42821306825e-10
1.42793202122e-10
1.42746468471e-10
1.4268100363e-10
1.42595064044e-10
1.42492806233e-10
1.42379397723e-10
1.42278194027e-10
1.42197149089e-10
1.42135635916e-10
1.42093026232e-10
1.42067477701e-10
1.42056277288e-10
1.42058268915e-10
1.42069687617e-10
1.42096452438e-10
1.42149122181e-10
1.42230264522e-10
1.42340035288e-10
1.42428522271e-10
1.42479871529e-10
1.42503022539e-10
1.42509804255e-10
1.42502174779e-10
1.42478745832e-10
1.42438704494e-10
1.42374598507e-10
1.42288876435e-10
1.42182534468e-10
1.42087170173e-10
1.42019090991e-10
1.41973618348e-10
1.41944690323e-10
1.41933548722e-10
1.41934768453e-10
1.41947674327e-10
1.41979034967e-10
1.42037695621e-10
1.42107499685e-10
1.42151894499e-10
1.42168907661e-10
1.42171634564e-10
1.42162429758e-10
1.42136402401e-10
1.42093056019e-10
1.42035277355e-10
1.41969032681e-10
1.41908850412e-10
1.41867891162e-10
1.41846378543e-10
1.4184331383e-10
1.41845920839e-10
1.41855777426e-10
1.41875732127e-10
1.41904821496e-10
1.41930087935e-10
1.4194534003e-10
1.41950828294e-10
1.41949756834e-10
1.41939847257e-10
1.41918978636e-10
1.41895423724e-10
1.41883551476e-10
1.41881382238e-10
1.41885468009e-10
1.41896005695e-10
1.41913898031e-10
1.41936177344e-10
1.41957703427e-10
1.4197537648e-10
1.41988390978e-10
1.41989537e-10
1.42035805826e-10
1.42080021815e-10
1.42120789888e-10
1.42161342586e-10
1.42201717348e-10
1.42242471885e-10
1.42283232972e-10
1.42323805046e-10
1.42363671584e-10
1.42403082457e-10
1.42441988969e-10
1.42480499876e-10
1.42518209571e-10
1.42554481868e-10
1.42589436796e-10
1.42623359431e-10
1.4265532819e-10
1.42684246192e-10
1.42711474773e-10
1.42737601929e-10
1.42760854439e-10
1.42780856823e-10
1.42798707472e-10
1.4281500257e-10
1.42828103559e-10
1.42836941632e-10
1.42841674831e-10
1.42843103699e-10
1.42842563304e-10
1.42840671044e-10
1.42836658015e-10
1.42829853718e-10
1.4281939171e-10
1.42804325298e-10
1.42784113214e-10
1.42758468737e-10
1.42728125135e-10
1.42693438849e-10
1.42655543172e-10
1.42615041669e-10
1.4257306731e-10
1.42530956873e-10
1.42488556676e-10
1.42444726193e-10
1.42399500088e-10
1.4235310251e-10
1.42304893245e-10
1.42255122911e-10
1.42204316263e-10
1.42152719297e-10
1.420994307e-10
1.42044640133e-10
1.41992287953e-10
1.41944809145e-10
1.41902977405e-10
1.41868113625e-10
1.4183915067e-10
1.41815166519e-10
1.41798106529e-10
1.41788141542e-10
1.41783475403e-10
1.41780870115e-10
1.41781384677e-10
1.41789623339e-10
1.41808022064e-10
1.41835378401e-10
1.41873527988e-10
1.41923196171e-10
1.4198571095e-10
1.42062815151e-10
1.42157670029e-10
1.42272314878e-10
1.42405771254e-10
1.42545683223e-10
1.42668119284e-10
1.42768479037e-10
1.42850246026e-10
1.42916129491e-10
1.42967412439e-10
1.43002789179e-10
1.43022029199e-10
1.43028520176e-10
1.43026746736e-10
1.43020311057e-10
1.43009106635e-10
1.42991792106e-10
1.429664029e-10
1.42931017662e-10
1.42885165778e-10
1.42830257621e-10
1.42768876962e-10
1.42701971384e-10
1.42632755787e-10
1.42560429816e-10
1.42483539287e-10
1.42399486151e-10
1.42311133042e-10
1.42227466081e-10
1.42155875276e-10
1.42098952593e-10
1.4205398193e-10
1.42019995894e-10
1.41996442053e-10
1.41986500375e-10
1.41987898774e-10
1.41999330483e-10
1.42028157654e-10
1.42082247355e-10
1.42168500406e-10
1.42295875458e-10
1.42460819597e-10
1.42636720511e-10
1.42768159291e-10
1.42854590639e-10
1.42901206124e-10
1.42918796347e-10
1.42921319292e-10