/*--------------------------------*- C++ -*----------------------------------*\
  =========                 |
  \\      /  F ield         | OpenFOAM: The Open Source CFD Toolbox
   \\    /   O peration     | Website:  https://openfoam.org
    \\  /    A nd           | Version:  8
     \\/     M anipulation  |
\*---------------------------------------------------------------------------*/
FoamFile
{
    version     2.0;
    format      ascii;
    class       volScalarField;
    location    "0.000664";
    object      mixMu;
}
// * * * * * * * * * * * * * * * * * * * * * * * * * * * * * * * * * * * * * //

dimensions      [1 -1 -1 0 0 0 0];

internalField   nonuniform List<scalar> 
22800
(
9.94773915573e-07
9.94806817683e-07
9.94847708968e-07
9.94907338987e-07
9.94969956043e-07
9.95023112395e-07
9.95067806353e-07
9.9510759238e-07
9.95147183768e-07
9.95189306209e-07
9.95235060377e-07
9.95284642919e-07
9.95335679582e-07
9.95387460752e-07
9.95431451994e-07
9.95468044805e-07
9.95501235157e-07
9.95534511797e-07
9.95568087675e-07
9.9559939785e-07
9.95625233847e-07
9.95645504879e-07
9.95658810536e-07
9.95663630578e-07
9.95662721397e-07
9.95657822948e-07
9.95648185889e-07
9.95633624444e-07
9.95614351755e-07
9.9558993391e-07
9.9555838225e-07
9.95518040734e-07
9.95470271325e-07
9.9541504291e-07
9.95352293883e-07
9.95281506614e-07
9.95205609274e-07
9.95124108364e-07
9.95044661122e-07
9.94970019583e-07
9.94895132013e-07
9.94820130948e-07
9.94742242915e-07
9.94671690486e-07
9.9459056593e-07
9.94503677631e-07
9.94407268274e-07
9.94302676421e-07
9.94192641519e-07
9.94083262092e-07
9.93975851395e-07
9.93867242381e-07
9.93758691133e-07
9.93653928588e-07
9.9355822524e-07
9.93481233107e-07
9.93424992118e-07
9.9338158554e-07
9.9334686351e-07
9.933235277e-07
9.93314133205e-07
9.93314991187e-07
9.93329443718e-07
9.93364293493e-07
9.93417363686e-07
9.93491054425e-07
9.93591878356e-07
9.93724793274e-07
9.93894207538e-07
9.94103813152e-07
9.94356604617e-07
9.94656497307e-07
9.95009068547e-07
9.95366223505e-07
9.95684426317e-07
9.95944191969e-07
9.96142719888e-07
9.96284023487e-07
9.96372203493e-07
9.96415329272e-07
9.96428323461e-07
9.96423680422e-07
9.96405744114e-07
9.9637513808e-07
9.9632871759e-07
9.96262276803e-07
9.96175641128e-07
9.96063265371e-07
9.95917064345e-07
9.95749054463e-07
9.95566279451e-07
9.95380995566e-07
9.95205755599e-07
9.95021986291e-07
9.94824585592e-07
9.94602611089e-07
9.94348270783e-07
9.94084748992e-07
9.93862915659e-07
9.93697640915e-07
9.93589867693e-07
9.93529914434e-07
9.93503317408e-07
9.93501895474e-07
9.93516188351e-07
9.93564626234e-07
9.93673029887e-07
9.93866283475e-07
9.94166463561e-07
9.94602090162e-07
9.95128151559e-07
9.95652362266e-07
9.96017459171e-07
9.96246995369e-07
9.96377194581e-07
9.96442444926e-07
9.96465902939e-07
9.96460794716e-07
9.96427073977e-07
9.96340083012e-07
9.96177141394e-07
9.9592835491e-07
9.95591218137e-07
9.95190259278e-07
9.94769964742e-07
9.94432956407e-07
9.94187054442e-07
9.94028423329e-07
9.93943514769e-07
9.93910837411e-07
9.93910930822e-07
9.93934053928e-07
9.94005435207e-07
9.94152617274e-07
9.94413846917e-07
9.9476793818e-07
9.95194282372e-07
9.9551479946e-07
9.95711254542e-07
9.9580939223e-07
9.9583870684e-07
9.95822969885e-07
9.9576318908e-07
9.95633596256e-07
9.95402491012e-07
9.95076509303e-07
9.94695440241e-07
9.94389952038e-07
9.94195901143e-07
9.94089506964e-07
9.94044112675e-07
9.94044785692e-07
9.94082552294e-07
9.94185812995e-07
9.94377921886e-07
9.94654060828e-07
9.94937364267e-07
9.95107052196e-07
9.95182794452e-07
9.95197612573e-07
9.95171511198e-07
9.9510143774e-07
9.94973862775e-07
9.94776148691e-07
9.94549452492e-07
9.94372256755e-07
9.94267789195e-07
9.9420731092e-07
9.94185171823e-07
9.94207473789e-07
9.9428248017e-07
9.94406643089e-07
9.94542649351e-07
9.94624074672e-07
9.94655417546e-07
9.94653525242e-07
9.94627949235e-07
9.94564008284e-07
9.94471543732e-07
9.94389368836e-07
9.94351343226e-07
9.94344397778e-07
9.94355880297e-07
9.94385459645e-07
9.94439114168e-07
9.94509154661e-07
9.9456198135e-07
9.94589173625e-07
9.94602624785e-07
9.94594654651e-07
9.94784041519e-07
9.94838939788e-07
9.94903784093e-07
9.94985690219e-07
9.9506648873e-07
9.95134902716e-07
9.95194522169e-07
9.95250525145e-07
9.95305128778e-07
9.95360246551e-07
9.95418441733e-07
9.95480514615e-07
9.95544380224e-07
9.95607287866e-07
9.95662980305e-07
9.95709619384e-07
9.95751816568e-07
9.95793468418e-07
9.95834461266e-07
9.95872644073e-07
9.95905054206e-07
9.95930889073e-07
9.95949806929e-07
9.95961589795e-07
9.95966222159e-07
9.95964240555e-07
9.95957706287e-07
9.95946466993e-07
9.95931020066e-07
9.95911314049e-07
9.95884960228e-07
9.9584971723e-07
9.95806052643e-07
9.95753698299e-07
9.95693034322e-07
9.95623843531e-07
9.95549701951e-07
9.95470121773e-07
9.95391969335e-07
9.95319127318e-07
9.95246714196e-07
9.9517350265e-07
9.95096102806e-07
9.95025027553e-07
9.9494186459e-07
9.94851234671e-07
9.94751473787e-07
9.94641486383e-07
9.94523474711e-07
9.94401939399e-07
9.94279990287e-07
9.94157644255e-07
9.94033563748e-07
9.93911523718e-07
9.93797828637e-07
9.93704101367e-07
9.93636479483e-07
9.93585845436e-07
9.93546130258e-07
9.93518928835e-07
9.93505528674e-07
9.93505457291e-07
9.93515532014e-07
9.93546902084e-07
9.93601885691e-07
9.93677826623e-07
9.93780642044e-07
9.93916243567e-07
9.9409083729e-07
9.94308065404e-07
9.94571195754e-07
9.9488148479e-07
9.95243158174e-07
9.95613690499e-07
9.95932417225e-07
9.96185567177e-07
9.96383406241e-07
9.96526821461e-07
9.9662040789e-07
9.96669753572e-07
9.96686652991e-07
9.96684404461e-07
9.96669230781e-07
9.96637391162e-07
9.96582908121e-07
9.96503006023e-07
9.96399077806e-07
9.96270673963e-07
9.96119311095e-07
9.9595125086e-07
9.95768648432e-07
9.95582986524e-07
9.95405865219e-07
9.95224975455e-07
9.95031822697e-07
9.94817227019e-07
9.9457128231e-07
9.94308793115e-07
9.94074565123e-07
9.9389491703e-07
9.93778283713e-07
9.93719493366e-07
9.93697151603e-07
9.93694148939e-07
9.93701656254e-07
9.93742841473e-07
9.93846074213e-07
9.9403850724e-07
9.94343128886e-07
9.94790364333e-07
9.95325157474e-07
9.95854233937e-07
9.96218657645e-07
9.96447294e-07
9.96576625399e-07
9.96644823326e-07
9.96674790532e-07
9.9666558048e-07
9.96613019005e-07
9.96502964812e-07
9.9632044508e-07
9.96060291523e-07
9.95715165287e-07
9.95309132298e-07
9.94884550605e-07
9.94542882633e-07
9.94292753297e-07
9.94133355038e-07
9.94051286522e-07
9.94021110394e-07
9.94019834739e-07
9.9403792907e-07
9.94104381175e-07
9.94246119918e-07
9.94503385669e-07
9.94853055324e-07
9.95279240417e-07
9.9559689708e-07
9.95787010451e-07
9.95878926706e-07
9.95904729983e-07
9.95883068963e-07
9.95812443425e-07
9.95673836089e-07
9.95434147976e-07
9.95100157209e-07
9.94706776857e-07
9.94395078099e-07
9.94199719893e-07
9.94093242096e-07
9.94044429189e-07
9.94044451651e-07
9.94078208416e-07
9.94173069838e-07
9.94354434426e-07
9.94629953557e-07
9.94905484961e-07
9.95070131594e-07
9.95143734631e-07
9.9515996503e-07
9.95129567246e-07
9.95047947125e-07
9.94916059069e-07
9.94722988295e-07
9.9450019898e-07
9.94326401663e-07
9.94219247781e-07
9.94146077559e-07
9.94121879824e-07
9.9415147231e-07
9.94236357399e-07
9.94367349627e-07
9.94506670066e-07
9.94587921021e-07
9.94616045528e-07
9.94607317613e-07
9.94571520614e-07
9.9450257229e-07
9.94413011074e-07
9.94341121346e-07
9.94310012053e-07
9.94306924364e-07
9.94320417831e-07
9.94354046334e-07
9.9441214746e-07
9.94487131608e-07
9.9454453276e-07
9.94577695787e-07
9.94597217524e-07
9.94591115444e-07
9.94807739688e-07
9.94908419323e-07
9.95020565135e-07
9.95148244907e-07
9.95269345694e-07
9.95375024242e-07
9.95471234754e-07
9.9556319717e-07
9.95652524181e-07
9.95741200658e-07
9.95830735441e-07
9.9591725099e-07
9.95999371269e-07
9.96078142044e-07
9.96149928575e-07
9.96211141263e-07
9.96266511628e-07
9.96321144816e-07
9.96374693707e-07
9.96423782348e-07
9.96465801202e-07
9.96499851749e-07
9.96526867365e-07
9.96546625726e-07
9.96557395027e-07
9.96557671653e-07
9.96552436476e-07
9.96542250937e-07
9.9652763906e-07
9.96509797632e-07
9.96485780939e-07
9.96452716603e-07
9.96410483648e-07
9.96358561381e-07
9.96297191403e-07
9.96224718616e-07
9.96144125203e-07
9.96055828191e-07
9.95968156743e-07
9.95885191335e-07
9.9580435055e-07
9.9572384966e-07
9.95638108678e-07
9.95558745028e-07
9.95468815199e-07
9.95371211975e-07
9.95262977097e-07
9.95143333005e-07
9.9501540576e-07
9.94882942144e-07
9.94747972378e-07
9.94609514335e-07
9.9446543149e-07
9.94319809217e-07
9.9417981271e-07
9.94060398917e-07
9.93972973034e-07
9.93906474488e-07
9.93852317224e-07
9.93812402981e-07
9.9378890016e-07
9.93782592917e-07
9.93785657494e-07
9.93808022589e-07
9.93859495871e-07
9.9393918024e-07
9.94054719806e-07
9.94209383365e-07
9.94408806245e-07
9.94654795827e-07
9.94954323451e-07
9.95312374812e-07
9.95729904874e-07
9.96141702959e-07
9.9648864473e-07
9.96763829444e-07
9.96975299325e-07
9.97128045776e-07
9.9722957739e-07
9.97286618253e-07
9.97309105739e-07
9.97308690386e-07
9.97292693025e-07
9.97253287915e-07
9.97185329137e-07
9.97088307246e-07
9.96964611702e-07
9.96815492114e-07
9.96644615816e-07
9.9646134623e-07
9.96266244586e-07
9.96074377911e-07
9.95890964067e-07
9.9570870579e-07
9.95515226985e-07
9.95301255785e-07
9.95054992341e-07
9.94784393912e-07
9.94525784117e-07
9.94318117088e-07
9.94174670604e-07
9.94097271401e-07
9.94061455153e-07
9.94045929276e-07
9.9404765063e-07
9.94082267887e-07
9.94185351109e-07
9.94388257235e-07
9.9471282999e-07
9.9518672666e-07
9.9575299328e-07
9.96311844247e-07
9.96696203236e-07
9.96939402806e-07
9.97079264042e-07
9.9715232451e-07
9.97170844515e-07
9.97142499392e-07
9.97065579617e-07
9.96923923749e-07
9.96708621583e-07
9.96420986927e-07
9.96057388813e-07
9.95647452216e-07
9.95217048804e-07
9.94864647339e-07
9.94598672018e-07
9.94421999968e-07
9.94325689021e-07
9.94284421855e-07
9.94272167658e-07
9.94285455473e-07
9.94346279874e-07
9.94483160384e-07
9.94742326652e-07
9.95098075836e-07
9.95538441615e-07
9.95864750472e-07
9.96049186294e-07
9.96127595479e-07
9.9614033877e-07
9.96104533312e-07
9.96011678825e-07
9.95851509203e-07
9.95590485539e-07
9.9524044184e-07
9.94825454763e-07
9.94495037454e-07
9.94281243309e-07
9.94156297622e-07
9.94083733362e-07
9.94074919918e-07
9.94104814486e-07
9.94191420934e-07
9.94358003228e-07
9.94638347518e-07
9.94912919599e-07
9.95075096113e-07
9.9514447524e-07
9.95158317108e-07
9.95119173924e-07
9.95020174122e-07
9.94868410031e-07
9.9466069306e-07
9.94425541359e-07
9.94239525982e-07
9.94119808831e-07
9.94027995991e-07
9.94002189877e-07
9.94036032626e-07
9.9412843486e-07
9.94264873209e-07
9.9440772332e-07
9.94485858662e-07
9.94506546741e-07
9.94493928105e-07
9.94459100119e-07
9.94398282311e-07
9.94314248016e-07
9.94242193947e-07
9.94212703508e-07
9.94211793798e-07
9.94229952049e-07
9.94272630527e-07
9.94341895285e-07
9.94429281026e-07
9.94501204578e-07
9.94551708619e-07
9.94586525298e-07
9.94583674353e-07
9.94832855245e-07
9.94983489817e-07
9.95140930118e-07
9.95307564098e-07
9.95467472974e-07
9.95614861223e-07
9.95754977545e-07
9.95891230423e-07
9.96024680605e-07
9.96157298655e-07
9.96288475289e-07
9.96411277986e-07
9.96525218775e-07
9.96634389473e-07
9.96734874981e-07
9.96820511275e-07
9.96897826526e-07
9.96973488196e-07
9.9704585084e-07
9.971098841e-07
9.97165114454e-07
9.97211656227e-07
9.97249949088e-07
9.97278517929e-07
9.97295739412e-07
9.97298774516e-07
9.97294347439e-07
9.97285053005e-07
9.97270375926e-07
9.97252815787e-07
9.97229576858e-07
9.97197327938e-07
9.97154527126e-07
9.97099199665e-07
9.97030960126e-07
9.96948507922e-07
9.9685400968e-07
9.96748046573e-07
9.96641237211e-07
9.96538555965e-07
9.96436152038e-07
9.96334899563e-07
9.96227467459e-07
9.96119546145e-07
9.96002155198e-07
9.95878112644e-07
9.95744736626e-07
9.956018657e-07
9.95453346756e-07
9.95301455572e-07
9.95146070065e-07
9.94984153086e-07
9.94818137808e-07
9.94654147327e-07
9.94491393415e-07
9.94344023426e-07
9.9422975761e-07
9.94141068716e-07
9.94066273355e-07
9.94010127822e-07
9.93973659846e-07
9.93955197804e-07
9.93947429019e-07
9.93959811207e-07
9.9400625508e-07
9.94092657663e-07
9.9422393753e-07
9.94401873518e-07
9.94630964668e-07
9.94916568942e-07
9.95272108584e-07
9.95704352146e-07
9.96217108505e-07
9.96730421972e-07
9.9715917019e-07
9.9749668621e-07
9.97751251947e-07
9.9792897924e-07
9.98041400445e-07
9.98107114086e-07
9.98139705434e-07
9.98142307203e-07
9.98125233658e-07
9.98081579318e-07
9.98002098976e-07
9.97888295465e-07
9.97743073586e-07
9.97570720464e-07
9.9737496626e-07
9.97166515474e-07
9.96947341121e-07
9.96738813772e-07
9.96542105219e-07
9.9634304859e-07
9.96128092836e-07
9.95892372455e-07
9.95625823083e-07
9.95333668998e-07
9.95044652769e-07
9.94795617292e-07
9.9460580238e-07
9.94490495708e-07
9.94428598753e-07
9.94395953487e-07
9.94393073114e-07
9.94425910045e-07
9.94535059815e-07
9.94756631564e-07
9.95113437091e-07
9.95639495669e-07
9.96274398515e-07
9.96913340395e-07
9.97351209669e-07
9.97628155929e-07
9.97785699588e-07
9.97861278364e-07
9.97873682549e-07
9.9783534755e-07
9.97733240274e-07
9.97554387126e-07
9.97301569611e-07
9.96983153792e-07
9.96593532018e-07
9.96159826085e-07
9.95705814717e-07
9.95327063594e-07
9.95028047457e-07
9.94812982361e-07
9.94679530274e-07
9.9459931175e-07
9.9454913858e-07
9.94548798135e-07
9.94601683132e-07
9.947486661e-07
9.95041306408e-07
9.95434830391e-07
9.9591735238e-07
9.96271796942e-07
9.96462589756e-07
9.96530712374e-07
9.96529502629e-07
9.96479688393e-07
9.96366303506e-07
9.961824436e-07
9.95892043006e-07
9.95509989163e-07
9.95058103287e-07
9.94690574619e-07
9.94439731134e-07
9.94277131928e-07
9.94171778408e-07
9.94146151329e-07
9.9416665474e-07
9.94243548558e-07
9.94397876392e-07
9.94683398541e-07
9.94975429323e-07
9.95150945827e-07
9.95226828227e-07
9.95238869634e-07
9.95188097689e-07
9.95065175019e-07
9.94878762882e-07
9.94636887538e-07
9.94366916939e-07
9.94145350626e-07
9.94000875988e-07
9.93906139989e-07
9.93891519717e-07
9.9392575065e-07
9.94015981066e-07
9.94149029122e-07
9.94291843037e-07
9.9437062986e-07
9.94401697645e-07
9.94401643523e-07
9.94380091971e-07
9.94328038164e-07
9.94241171316e-07
9.94154484219e-07
9.94115310787e-07
9.94111000743e-07
9.94132147089e-07
9.94184566222e-07
9.94269381312e-07
9.94372578597e-07
9.94461008047e-07
9.94528093772e-07
9.94578629883e-07
9.94579998685e-07
9.94856258674e-07
9.95049970858e-07
9.95238496104e-07
9.95433152967e-07
9.95625145826e-07
9.9581168697e-07
9.95992956221e-07
9.96170902595e-07
9.96346336626e-07
9.96520481238e-07
9.96690717192e-07
9.96851100186e-07
9.97004467501e-07
9.9715580522e-07
9.97296953672e-07
9.97420904864e-07
9.97537341551e-07
9.9765133605e-07
9.97756405882e-07
9.9784684362e-07
9.97927239534e-07
9.9799932793e-07
9.98059400456e-07
9.98104723572e-07
9.98136112229e-07
9.98149028871e-07
9.9814983427e-07
9.98144882397e-07
9.98132437012e-07
9.98113916601e-07
9.98086928886e-07
9.98047127412e-07
9.97991042988e-07
9.97916702275e-07
9.97825998482e-07
9.97719835749e-07
9.97599129379e-07
9.97462431913e-07
9.97321477859e-07
9.97183565632e-07
9.9704394376e-07
9.96906512654e-07
9.96764260074e-07
9.96617106232e-07
9.9645971791e-07
9.96297735738e-07
9.96128675388e-07
9.95952402107e-07
9.95770936361e-07
9.95585742764e-07
9.95394209458e-07
9.95192314398e-07
9.94990789969e-07
9.94802934285e-07
9.94625509404e-07
9.94462880024e-07
9.94330046522e-07
9.94223578831e-07
9.94134343487e-07
9.94066919792e-07
9.94025060291e-07
9.94005000341e-07
9.93994044187e-07
9.94004888021e-07
9.94052609537e-07
9.94145435327e-07
9.9428484055e-07
9.94475689334e-07
9.94728808839e-07
9.95059308672e-07
9.95473235018e-07
9.95978416259e-07
9.96589519043e-07
9.97230655325e-07
9.97777296767e-07
9.98211657454e-07
9.98543300971e-07
9.98772453849e-07
9.98907743545e-07
9.98980688705e-07
9.99022586344e-07
9.99035875095e-07
9.99025630884e-07
9.98988453436e-07
9.98906110884e-07
9.98779614445e-07
9.98613280949e-07
9.98416101862e-07
9.98192291465e-07
9.97951728534e-07
9.97697035942e-07
9.97442762942e-07
9.97205513507e-07
9.96958304565e-07
9.96690896942e-07
9.96405191565e-07
9.96093719393e-07
9.95761913611e-07
9.95441386343e-07
9.95158784589e-07
9.94922674378e-07
9.94757076173e-07
9.94659826268e-07
9.94614593528e-07
9.94612872791e-07
9.94653005965e-07
9.94779512672e-07
9.95031687065e-07
9.9543503137e-07
9.96026821944e-07
9.96761995648e-07
9.9752031631e-07
9.98051714733e-07
9.98392073743e-07
9.98582740816e-07
9.98666663599e-07
9.98675513496e-07
9.98629582561e-07
9.98509105882e-07
9.98305017368e-07
9.98019750202e-07
9.97661943467e-07
9.97229505782e-07
9.96745393305e-07
9.96234083563e-07
9.95800698382e-07
9.95448036504e-07
9.95177146719e-07
9.94988797367e-07
9.94855507822e-07
9.94768435519e-07
9.94758726319e-07
9.94815000146e-07
9.94986609106e-07
9.95329610082e-07
9.9579140983e-07
9.96355669282e-07
9.96765422928e-07
9.96971178502e-07
9.97029469433e-07
9.97016666847e-07
9.96953241995e-07
9.96826100956e-07
9.96622973672e-07
9.96298540394e-07
9.95867326603e-07
9.95350436887e-07
9.94907974747e-07
9.94593397107e-07
9.94378314415e-07
9.94237320443e-07
9.94197258779e-07
9.94215167955e-07
9.94295955164e-07
9.94464532539e-07
9.94770845722e-07
9.95099622745e-07
9.95299106209e-07
9.95384640532e-07
9.95399180324e-07
9.95337483247e-07
9.95186714393e-07
9.94955658459e-07
9.94662314259e-07
9.94344757662e-07
9.94076191262e-07
9.93896545944e-07
9.93798417646e-07
9.93795817222e-07
9.93830191884e-07
9.93911631676e-07
9.94030590465e-07
9.94173361777e-07
9.94272136071e-07
9.94332700904e-07
9.94351277332e-07
9.94340728699e-07
9.94290343145e-07
9.94193198979e-07
9.94086468817e-07
9.94032224363e-07
9.94021767147e-07
9.94045084222e-07
9.94105616496e-07
9.94205179634e-07
9.94324347028e-07
9.94430278047e-07
9.94513010345e-07
9.94576607625e-07
9.94580583143e-07
9.94874149059e-07
9.95101214856e-07
9.95314521281e-07
9.95532260916e-07
9.95752735147e-07
9.95975367365e-07
9.9619360069e-07
9.96407233755e-07
9.96617178851e-07
9.96824734421e-07
9.97027640213e-07
9.97222902738e-07
9.97414475449e-07
9.97603071044e-07
9.97778495571e-07
9.9794166933e-07
9.98100705757e-07
9.98252324987e-07
9.98387406814e-07
9.98507109232e-07
9.9861772384e-07
9.98719445532e-07
9.98804384298e-07
9.98872970098e-07
9.9892694612e-07
9.9895780779e-07
9.98970224648e-07
9.98970504171e-07
9.98963702527e-07
9.98946642756e-07
9.98916708163e-07
9.98868603768e-07
9.98800003525e-07
9.98708921672e-07
9.98599468356e-07
9.98469360862e-07
9.98319392895e-07
9.98147485371e-07
9.97964443e-07
9.9777809261e-07
9.97589964256e-07
9.97406767576e-07
9.97222699294e-07
9.97033928215e-07
9.96836773241e-07
9.96635574321e-07
9.96426386196e-07
9.96209043639e-07
9.9598416685e-07
9.9575327751e-07
9.95513324695e-07
9.95267011665e-07
9.95026856786e-07
9.94804692593e-07
9.94602106331e-07
9.94420313569e-07
9.94268271498e-07
9.94140029194e-07
9.94034466876e-07
9.93952587e-07
9.93904486351e-07
9.93887821064e-07
9.93884680725e-07
9.93903353689e-07
9.93963840344e-07
9.94071383674e-07
9.94225429249e-07
9.94439836533e-07
9.94730688376e-07
9.95114158155e-07
9.95602411131e-07
9.96198496016e-07
9.96898739194e-07
9.97644391638e-07
9.98295539736e-07
9.98825494388e-07
9.99243716768e-07
9.99546414373e-07
9.99734155445e-07
9.99830173593e-07
9.99881490207e-07
9.99907962113e-07
9.9990522875e-07
9.9987605002e-07
9.99799557548e-07
9.99670077921e-07
9.99487363184e-07
9.99262839735e-07
9.99004204102e-07
9.98720137341e-07
9.98416524951e-07
9.98096918531e-07
9.97788534838e-07
9.97471689332e-07
9.97138071048e-07
9.96787279494e-07
9.9641496808e-07
9.96027170821e-07
9.9566286624e-07
9.95345373446e-07
9.95076257509e-07
9.94876246248e-07
9.94749307693e-07
9.94690194094e-07
9.9468961983e-07
9.94739674812e-07
9.94887324053e-07
9.95174573326e-07
9.95632942736e-07
9.96307366247e-07
9.97156158401e-07
9.98053219619e-07
9.9869935274e-07
9.99116617794e-07
9.99348144839e-07
9.99445212587e-07
9.99455784133e-07
9.99407775132e-07
9.99279270931e-07
9.99060403861e-07
9.98748887635e-07
9.98351859572e-07
9.97862852455e-07
9.97304432694e-07
9.96698723224e-07
9.96174068135e-07
9.95747611712e-07
9.95418201269e-07
9.95182216763e-07
9.95016821866e-07
9.94922237811e-07
9.9492142406e-07
9.94989059918e-07
9.95176963852e-07
9.9554860457e-07
9.96073482583e-07
9.96736262263e-07
9.97227278763e-07
9.97472563687e-07
9.97541385447e-07
9.97525894941e-07
9.97451007048e-07
9.97308529462e-07
9.97083764299e-07
9.96716658861e-07
9.96219333117e-07
9.95612526185e-07
9.95077618229e-07
9.9469251529e-07
9.94429179234e-07
9.94260127432e-07
9.94210860111e-07
9.94231026729e-07
9.94322028043e-07
9.94520806532e-07
9.94871954153e-07
9.95262792581e-07
9.95500842834e-07
9.95595813836e-07
9.95608816644e-07
9.95535473441e-07
9.95354538986e-07
9.95077988255e-07
9.94728979793e-07
9.94356367612e-07
9.94034483652e-07
9.93815068635e-07
9.93705821271e-07
9.93706184783e-07
9.93738438879e-07
9.93811022079e-07
9.93925407469e-07
9.94086110116e-07
9.94216016843e-07
9.94301880902e-07
9.94335547157e-07
9.94330338794e-07
9.94274676876e-07
9.94160856342e-07
9.94031247073e-07
9.93962911683e-07
9.93947194029e-07
9.93971545218e-07
9.94037548668e-07
9.94148639166e-07
9.94282744945e-07
9.94406139626e-07
9.94503577842e-07
9.94577354392e-07
9.94583902963e-07
9.94889013715e-07
9.95144351112e-07
9.95382345839e-07
9.95624902276e-07
9.9587127398e-07
9.9612448919e-07
9.96377441773e-07
9.96624153473e-07
9.96865505065e-07
9.97102792983e-07
9.97335067287e-07
9.97562039365e-07
9.9778629343e-07
9.98004732138e-07
9.98210119416e-07
9.98407166607e-07
9.98599820461e-07
9.98777812131e-07
9.9893595826e-07
9.99083681712e-07
9.99222358144e-07
9.9934554623e-07
9.99449455022e-07
9.99539055161e-07
9.99611836313e-07
9.99659152404e-07
9.99682753935e-07
9.99689436285e-07
9.99685381136e-07
9.9966949304e-07
9.99638710266e-07
9.99587662489e-07
9.99515012919e-07
9.99414820735e-07
9.99290937542e-07
9.99139276973e-07
9.98961845905e-07
9.98756919256e-07
9.98532981467e-07
9.98298081798e-07
9.98058299453e-07
9.97821715797e-07
9.97586412949e-07
9.97347651822e-07
9.97104504116e-07
9.96860977675e-07
9.96609057552e-07
9.96348488232e-07
9.96081222578e-07
9.95807853956e-07
9.9552839162e-07
9.95244709098e-07
9.94964244619e-07
9.94698415028e-07
9.94452809614e-07
9.9423576635e-07
9.94050827615e-07
9.93897157752e-07
9.93777674215e-07
9.93686666422e-07
9.93637019814e-07
9.93625755327e-07
9.93632586877e-07
9.93670009541e-07
9.93752295079e-07
9.9387803626e-07
9.94056417738e-07
9.9430971915e-07
9.9465896466e-07
9.95116059248e-07
9.95690709308e-07
9.96385059661e-07
9.9718535015e-07
9.98023778595e-07
9.98754391869e-07
9.99355146999e-07
9.99840612434e-07
1.00021740721e-06
1.00047995768e-06
1.00063082107e-06
1.00070520177e-06
1.00073766985e-06
1.00073351002e-06
1.00070174285e-06
1.00062893697e-06
1.00049990545e-06
1.00030610597e-06
1.00005528686e-06
9.99758583621e-07
9.99426996827e-07
9.9907152908e-07
9.9869151724e-07
9.98311360266e-07
9.97920146487e-07
9.97511074604e-07
9.97082799573e-07
9.96630149506e-07
9.96170062088e-07
9.95757259922e-07
9.95410113085e-07
9.95126401933e-07
9.94911307194e-07
9.94766398586e-07
9.94697833185e-07
9.94701557669e-07
9.94763122973e-07
9.94924604517e-07
9.9523900658e-07
9.95747028635e-07
9.96503135246e-07
9.97470144846e-07
9.98502665271e-07
9.99266673972e-07
9.99766810097e-07
1.00003917817e-06
1.00014921734e-06
1.00016649631e-06
1.00012449334e-06
1.00000617658e-06
9.99786711237e-07
9.99455656844e-07
9.9901862851e-07
9.98460555238e-07
9.97808250476e-07
9.97091081441e-07
9.96455442846e-07
9.95941550962e-07
9.95549908595e-07
9.95274774466e-07
9.95099537994e-07
9.95017387022e-07
9.95034593695e-07
9.95118355081e-07
9.95310283463e-07
9.95682957629e-07
9.96240407328e-07
9.96979640625e-07
9.9755587302e-07
9.97869128525e-07
9.97984069345e-07
9.97993097671e-07
9.97921874882e-07
9.97760882485e-07
9.97504200441e-07
9.97086442331e-07
9.96519536e-07
9.95820918497e-07
9.95201911956e-07
9.94756437977e-07
9.94453551342e-07
9.9426145745e-07
9.9420091579e-07
9.94219670875e-07
9.9431620582e-07
9.945352722e-07
9.94931968093e-07
9.95390497866e-07
9.95671762182e-07
9.95779130631e-07
9.95791199342e-07
9.95718051149e-07
9.95528736006e-07
9.95226448836e-07
9.94832798251e-07
9.9439864324e-07
9.94013662022e-07
9.93751305072e-07
9.9362269635e-07
9.93616999083e-07
9.93641312046e-07
9.93710630629e-07
9.93838239679e-07
9.94023965456e-07
9.94182435019e-07
9.94283730238e-07
9.9432373201e-07
9.94319324948e-07
9.94255720772e-07
9.94122021864e-07
9.93969672397e-07
9.93890592759e-07
9.93873139995e-07
9.93899781654e-07
9.93971474298e-07
9.94092987894e-07
9.94241493692e-07
9.94382016295e-07
9.94494954431e-07
9.94579807526e-07
9.94587777915e-07
9.94905719397e-07
9.95190666963e-07
9.95455157879e-07
9.9572404193e-07
9.9599677305e-07
9.96277852577e-07
9.96560339914e-07
9.96836749924e-07
9.97105968136e-07
9.97369965272e-07
9.97628917819e-07
9.97884038038e-07
9.98135151957e-07
9.98377699697e-07
9.98608941675e-07
9.9883399619e-07
9.99050655608e-07
9.99245792155e-07
9.99423033711e-07
9.99594718132e-07
9.99753130077e-07
9.99889803389e-07
1.00000860085e-06
1.00011591028e-06
1.00020337777e-06
1.00026189839e-06
1.00029288371e-06
1.00030168166e-06
1.0002973257e-06
1.00028183061e-06
1.00025082397e-06
1.00020042094e-06
1.00012637865e-06
1.00002118051e-06
9.99884354456e-07
9.99713164265e-07
9.99510804358e-07
9.99278405169e-07
9.99023888683e-07
9.9875306314e-07
9.9847502857e-07
9.98200438333e-07
9.97923791163e-07
9.97638718983e-07
9.97349177872e-07
9.97057502302e-07
9.96754869512e-07
9.96443239453e-07
9.96126762567e-07
9.95804713158e-07
9.95478945502e-07
9.95147161603e-07
9.94816588237e-07
9.9450604118e-07
9.9421959308e-07
9.93966483946e-07
9.93750295074e-07
9.93574060384e-07
9.93444630085e-07
9.9336007883e-07
9.93321608783e-07
9.93310157345e-07
9.93318781147e-07
9.93375023799e-07
9.93488523411e-07
9.93648873202e-07
9.93872850837e-07
9.94178937561e-07
9.9458617078e-07
9.95109587008e-07
9.95756545335e-07
9.96533932326e-07
9.97431376216e-07
9.98362937549e-07
9.99172090708e-07
9.99835654416e-07
1.00037769086e-06
1.00081622082e-06
1.00114829971e-06
1.00136131279e-06
1.0014698546e-06
1.00150665752e-06
1.00149514833e-06
1.00145258443e-06
1.0013757113e-06
1.00124627705e-06
1.00105091926e-06
1.00078790218e-06
1.00046393275e-06
1.00009273129e-06
9.99689404316e-07
9.99254714515e-07
9.98811055864e-07
9.98354107396e-07
9.97877781576e-07
9.97367282365e-07
9.96818121934e-07
9.96276180085e-07
9.95801817951e-07
9.95421665538e-07
9.95120451025e-07
9.94891237715e-07
9.94733930363e-07
9.94659972841e-07
9.9466318707e-07
9.94732589008e-07
9.94912864951e-07
9.95261718333e-07
9.95827946437e-07
9.96671699846e-07
9.97761151903e-07
9.98925732454e-07
9.99794660007e-07
1.00036435211e-06
1.00067042678e-06
1.00078933634e-06
1.00081113045e-06
1.00077607798e-06
1.00067996056e-06
1.0004745111e-06
1.00013283456e-06
9.9965411329e-07
9.99025493169e-07
9.98277252405e-07
9.9744709112e-07
9.96705977878e-07
9.96112287774e-07
9.956615581e-07
9.95349281283e-07
9.95162018268e-07
9.95079917053e-07
9.95094516316e-07
9.95178216983e-07
9.95374392994e-07
9.95760385682e-07
9.96354894423e-07
9.97158873356e-07
9.97806730043e-07
9.98182586595e-07
9.98352019775e-07
9.98401649777e-07
9.98345815607e-07
9.98174347692e-07
9.97881265582e-07
9.97411952754e-07
9.9678421803e-07
9.96005210323e-07
9.95306359699e-07
9.94807309883e-07
9.94473905829e-07
9.94261777244e-07
9.94180070072e-07
9.94189015157e-07
9.94283659929e-07
9.94513623257e-07
9.94943702321e-07
9.95455359476e-07
9.95780700671e-07
9.95905365124e-07
9.95925345862e-07
9.95857899016e-07
9.95667175046e-07
9.953494996e-07
9.94925974294e-07
9.94440280744e-07
9.93998932459e-07
9.9369850049e-07
9.9354068934e-07
9.9351820636e-07
9.93537331606e-07
9.93609638722e-07
9.93756016697e-07
9.93969382784e-07
9.94154689625e-07
9.94266541775e-07
9.9430678875e-07
9.94298931496e-07
9.94226260928e-07
9.94073214941e-07
9.93900454076e-07
9.93813372694e-07
9.93797461204e-07
9.93827430474e-07
9.93904722662e-07
9.94035953084e-07
9.94199347431e-07
9.94357204863e-07
9.94486797443e-07
9.94582224455e-07
9.94590627281e-07
9.94929848471e-07
9.95253965044e-07
9.95552760467e-07
9.95849932778e-07
9.96145757015e-07
9.96444319201e-07
9.96742884533e-07
9.97040020892e-07
9.97331946929e-07
9.97620494249e-07
9.97905307881e-07
9.9818718541e-07
9.98463159899e-07
9.98728578902e-07
9.98984324775e-07
9.99232486582e-07
9.99466326532e-07
9.99677827706e-07
9.99876952276e-07
1.00006800339e-06
1.00023801869e-06
1.00038425849e-06
1.00051475767e-06
1.00063387738e-06
1.00072964251e-06
1.00079424414e-06
1.00082884046e-06
1.00083928435e-06
1.0008353345e-06
1.00082150354e-06
1.00079217109e-06
1.00074243541e-06
1.00066596147e-06
1.00055582566e-06
1.00040806534e-06
1.00022057583e-06
9.9999870779e-07
9.99745056482e-07
9.99467898958e-07
9.99171640662e-07
9.98864562385e-07
9.98556441069e-07
9.98246151473e-07
9.97925344092e-07
9.9759426761e-07
9.97254558178e-07
9.96901522684e-07
9.96536989775e-07
9.96164797647e-07
9.95786744582e-07
9.95396221328e-07
9.94994610841e-07
9.94610797595e-07
9.94262648607e-07
9.93955857344e-07
9.93700132358e-07
9.93487664669e-07
9.93311703457e-07
9.93186532259e-07
9.93113414292e-07
9.93079175624e-07
9.93060058586e-07
9.93063834346e-07
9.93124287129e-07
9.93259284698e-07
9.93459990224e-07
9.93739848747e-07
9.94104146394e-07
9.94562573897e-07
9.95127841283e-07
9.95823021913e-07
9.9666291647e-07
9.97640178796e-07
9.98664198923e-07
9.99559881106e-07
1.00029376429e-06
1.00089148828e-06
1.00137297239e-06
1.00174767405e-06
1.00200611528e-06
1.00214665732e-06
1.00219406955e-06
1.00218111587e-06
1.00213410725e-06
1.0020522633e-06
1.00192578083e-06
1.00174029847e-06
1.00148176084e-06
1.00114670036e-06
1.00074538776e-06
1.0002966736e-06
9.99807455565e-07
9.99301220389e-07
9.98772099063e-07
9.9820943044e-07
9.97594165574e-07
9.9694722012e-07
9.96334393935e-07
9.95809870631e-07
9.95392717188e-07
9.95063091215e-07
9.94813944036e-07
9.94641255555e-07
9.94568362155e-07
9.94578615519e-07
9.94662433314e-07
9.94873779681e-07
9.95270277527e-07
9.95902381045e-07
9.9683547865e-07
9.98043142148e-07
9.99330221405e-07
1.00029142657e-06
1.00092324279e-06
1.00126392081e-06
1.00139245964e-06
1.00141089514e-06
1.00137444918e-06