/*--------------------------------*- C++ -*----------------------------------*\
  =========                 |
  \\      /  F ield         | OpenFOAM: The Open Source CFD Toolbox
   \\    /   O peration     | Website:  https://openfoam.org
    \\  /    A nd           | Version:  8
     \\/     M anipulation  |
\*---------------------------------------------------------------------------*/
FoamFile
{
    version     2.0;
    format      ascii;
    class       volScalarField;
    location    "0.000664";
    object      O2;
}
// * * * * * * * * * * * * * * * * * * * * * * * * * * * * * * * * * * * * * //

dimensions      [0 0 0 0 0 0 0];

internalField   nonuniform List<scalar> 
22800
(
1.11878382584e-134
9.30347521175e-133
3.25885891108e-131
4.79338591048e-130
1.02575027813e-128
3.67999653531e-127
2.08370705811e-125
1.96863268675e-123
4.57775155219e-122
1.53256835865e-120
5.18937366042e-119
2.42299309003e-117
8.25902781079e-116
4.06049980507e-114
1.2091503694e-112
5.08204642363e-111
1.48326622276e-109
6.47342575357e-108
1.54637940444e-106
2.76152728241e-105
1.64930949586e-103
5.88904296281e-102
1.98764263603e-100
1.0771492926e-98
1.90492955429e-97
1.82559028616e-96
6.34882005054e-95
6.83595818619e-94
2.94343860995e-92
6.74090746359e-91
6.34781772286e-90
1.39140905307e-88
3.68135547556e-87
1.09903195991e-85
4.03956481281e-85
1.2506252317e-83
1.30225149396e-81
4.72763250768e-80
6.46449430612e-79
1.49586792769e-77
1.08486240331e-76
7.09884511998e-76
5.84807481625e-75
4.19253349352e-74
6.54103889937e-73
5.83930946561e-72
3.18136439752e-71
4.07613082773e-70
4.24676182789e-69
1.86714226462e-67
1.72487832338e-66
9.98647364851e-66
1.21768617678e-64
8.30702040664e-64
6.2550533685e-63
3.13448379888e-62
1.2748111311e-61
7.85160973713e-61
4.44622445014e-60
1.41561004829e-59
6.36187182117e-59
3.1146323816e-58
1.07156004679e-57
3.36500492014e-57
1.01932929392e-56
2.7758015899e-56
7.421999711e-56
2.53167675012e-55
4.97650836523e-55
1.33088705084e-54
2.3515042208e-54
3.3835981333e-54
4.52746439522e-54
5.51207476789e-54
5.94484050602e-54
5.75826648978e-54
4.56710302662e-54
3.55769192867e-54
2.02732706346e-54
1.49957222034e-54
7.3324460499e-55
4.86010407095e-55
3.40025703667e-55
5.61600556161e-55
6.09481734207e-54
3.44061183836e-53
2.63534366391e-52
2.8580219881e-51
5.77807224395e-50
9.19443356653e-49
1.74489334869e-47
6.40715198404e-47
3.38563428701e-46
3.2502361569e-45
1.113288547e-44
6.93687315105e-44
6.93217974127e-43
1.55222371725e-42
5.27784811232e-42
1.88204562171e-41
3.04921289468e-41
8.83455654086e-41
2.62217102367e-40
5.29218144536e-40
2.13254519013e-39
6.00527915526e-39
1.27458722749e-38
2.84057985761e-38
4.00990599924e-38
4.81404749121e-38
5.13213939058e-38
4.69547292717e-38
3.41666259834e-38
2.00518990361e-38
1.2702172983e-38
4.89723186898e-39
2.13373154248e-39
9.53294869182e-40
9.12266520404e-40
3.76378635918e-39
1.4208113167e-38
7.21299299617e-38
2.6639608233e-37
1.75482613861e-36
6.91333915062e-36
3.57794291901e-35
1.00913396224e-34
2.04208788664e-34
4.30744673242e-34
9.2596762257e-34
1.92550239157e-33
4.11769698171e-33
8.35692636088e-33
1.27109294536e-32
1.41338013908e-32
1.55937508734e-32
1.5467337678e-32
1.23750865888e-32
9.90810419752e-33
5.81162505411e-33
3.52278939658e-33
2.6822976428e-33
3.76719229212e-33
1.5053460926e-32
4.95437020386e-32
2.50347613221e-31
5.12255257597e-31
1.37931975669e-30
3.01719488741e-30
6.84880608421e-30
2.04851001416e-29
4.76586281536e-29
1.06755252551e-28
1.6666535141e-28
2.11767319684e-28
2.38602924621e-28
2.31854877619e-28
1.71784878373e-28
1.0895564097e-28
5.64405473447e-29
3.0943400606e-29
1.28489386354e-29
9.31454331136e-30
9.30961690697e-30
1.28865992418e-29
2.14864359018e-29
5.78844845616e-29
1.12708506297e-28
1.58984981973e-28
2.15323094945e-28
3.25505807505e-28
9.67069917104e-28
1.67823519025e-27
3.44047400551e-27
1.08997063533e-26
1.63274375351e-26
3.72756615281e-26
8.38122025252e-26
1.73382143406e-25
3.39298244814e-25
5.81660132058e-25
9.24102098436e-25
1.02240006246e-24
1.02247454272e-24
9.71120886726e-25
7.10426048554e-25
4.34187084349e-25
2.5422010602e-25
1.58531525285e-25
8.93680210818e-26
3.73320529958e-131
2.38979620559e-129
8.33505274212e-128
1.8179212044e-126
2.80471389473e-125
6.55198747442e-124
8.23814021962e-123
1.28699810592e-121
4.75776839947e-120
1.60537162658e-118
6.21375605048e-117
2.58302597557e-115
7.07876475956e-114
1.14074267701e-112
2.37476545838e-111
1.23829680936e-109
9.30058902591e-108
1.65053674508e-106
6.00367841497e-105
2.81704643841e-103
9.494871446e-102
1.29857970909e-100
6.31717457131e-99
2.53159339974e-97
1.17098912725e-95
8.78547522083e-95
2.82972364955e-93
6.96126998009e-92
2.02950201666e-90
2.71721532888e-89
3.93129031185e-88
2.66194419391e-87
3.65644810077e-86
1.59055892244e-84
3.94927881768e-83
2.61414318901e-82
1.23882622388e-81
2.20013645985e-80
7.52212762263e-79
1.03495807869e-77
1.17393153023e-76
5.43582257018e-75
4.20995077571e-74
3.45030719915e-73
5.45671328234e-72
3.83921545046e-71
6.55678286486e-70
5.69489662071e-69
7.33067672802e-68
8.7312927048e-67
1.72172478791e-65
1.12308748151e-64
9.42142770812e-64
5.63883588237e-63
3.24008617315e-62
1.86252113484e-61
7.74150351211e-61
5.62650405101e-60
2.87094175373e-59
1.8992287456e-58
9.93474238929e-58
4.62151847054e-57
2.87891233245e-56
8.48152089692e-56
2.35594308605e-55
7.87063846982e-55
1.57011136942e-54
5.23580072946e-54
1.5759783357e-53
2.73140955442e-53
6.07891142946e-53
7.57432112898e-53
1.0268777159e-52
1.24420946529e-52
1.30380182744e-52
1.37838790542e-52
1.20708439325e-52
7.92648738953e-53
5.31151902983e-53
3.56073340515e-53
2.04313425729e-53
1.25467393698e-53
8.16689889343e-54
8.22915272433e-54
4.50911122812e-53
4.81434083961e-52
3.31911106381e-51
3.65360101615e-50
3.19496753373e-49
4.37174406683e-48
3.29857365888e-47
6.98209309189e-46
2.38127020683e-45
2.73504048937e-44
1.30030355876e-43
3.37402901961e-43
2.5601638455e-42
1.57124176431e-41
4.25395902697e-41
2.11385530389e-40
6.5779819419e-40
1.84958856861e-39
4.84616146034e-39
1.22297731251e-38
3.7141919252e-38
9.37504462132e-38
2.23128443923e-37
5.37070315993e-37
7.73629518419e-37
8.57374721643e-37
9.55274421148e-37
9.13986757325e-37
5.98987328276e-37
3.80389648052e-37
2.0338245949e-37
1.049797342e-37
3.84465024706e-38
1.71115795292e-38
1.04644340381e-38
1.83047104425e-38
6.6433496743e-38
2.8895928986e-37
1.26536246701e-36
1.1880769509e-35
4.58581296164e-35
1.94359725477e-34
5.72948389636e-34
1.42189682263e-33
2.54196513042e-33
8.27773602105e-33
1.96084138653e-32
3.68379900553e-32
8.02150599141e-32
1.38970063602e-31
1.80504997214e-31
2.02166271275e-31
2.01806489682e-31
1.74525471201e-31
1.16822539729e-31
6.07508782735e-32
3.52131365772e-32
2.02962558581e-32
2.31377824026e-32
7.65260949123e-32
2.88850799519e-31
9.07952174273e-31
2.47744884891e-30
9.37393696024e-30
2.59168045109e-29
7.18413939564e-29
2.15664273789e-28
4.36477985225e-28
1.09151693668e-27
1.80868625924e-27
2.5372825708e-27
3.42898966163e-27
3.32048626636e-27
2.40232477839e-27
1.3540297715e-27
7.18616489642e-28
3.70313862905e-28
1.57433719805e-28
9.31306735586e-29
8.11368327448e-29
1.08000353997e-28
2.02304873118e-28
4.00671978255e-28
8.41174948311e-28
1.6169580179e-27
2.32114694405e-27
3.2886440407e-27
7.8951922754e-27
1.68223305497e-26
4.75999262538e-26
1.08246139308e-25
2.60987262315e-25
5.84711397157e-25
1.13502613083e-24
3.05273012094e-24
6.15961819393e-24
1.38890419722e-23
1.90514378724e-23
2.18626688087e-23
2.19055471919e-23
1.93851192415e-23
1.27932139796e-23
6.64912938928e-24
4.12444853976e-24
2.44410635456e-24
1.39647296867e-24
4.76021426871e-128
7.6715990276e-126
2.43149374815e-124
5.42103132996e-123
9.53841189546e-122
1.86929118796e-120
1.99836315144e-119
2.66933830474e-118
6.55465987335e-117
1.01550404597e-115
1.31002564086e-114
4.71001266955e-113
2.90577357641e-112
9.602990339e-111
2.83635630674e-109
7.64317650921e-108
4.27391878032e-106
3.20439146962e-104
3.63014135407e-103
1.81013241074e-101
1.6794472155e-100
6.90306888478e-99
1.83255225049e-97
6.90620288135e-96
1.45875177232e-94
2.00503987936e-93
4.80333251582e-92
6.69368604844e-91
3.5584399887e-89
7.1734726265e-88
3.00982906725e-87
2.60981632333e-86
4.05468946501e-85
1.28859423202e-83
3.69367361939e-82
1.94172842165e-80
1.5645297655e-79
8.10350920104e-79
2.33265916217e-77
1.50612439899e-75
1.31657340826e-74
2.92236002737e-73
1.7118682013e-72
2.34237171182e-71
4.00724575886e-70
7.37447970812e-69
6.52570643066e-68
2.33147485419e-67
2.05621492464e-66
3.21847794283e-65
3.25590735205e-64
6.32178466035e-63
2.40869595808e-62
2.11352994514e-61
2.64996833365e-60
8.29604832143e-60
7.11990324003e-59
2.97840993988e-58
1.93421983797e-57
8.35026421529e-57
2.36418427057e-56
8.39054778375e-56
2.14840293632e-55
1.08129394135e-54
2.61935592576e-54
7.8001602007e-54
3.10315424209e-53
1.08471267744e-52
3.41974711327e-52
6.37956018574e-52
1.36453372252e-51
2.40982801348e-51
3.07571362872e-51
3.57495864187e-51
3.43459815173e-51
3.46150751283e-51
2.83919773634e-51
2.02953436885e-51
1.34618242511e-51
8.98676035693e-52
5.3130793995e-52
3.27180493805e-52
2.06341267554e-52
1.92150764353e-52
9.34075743277e-52
4.10319867142e-50
3.28709591318e-49
3.92641061551e-48
1.17727849483e-47
6.68588821959e-47
2.73601998782e-45
1.30433075033e-44
6.97061097963e-44
4.04746990859e-43
2.36500456465e-42
1.02447417699e-41
6.10062358998e-41
2.45780563165e-40
1.12746456579e-39
3.70411479048e-39
1.0385735848e-38
3.00587853036e-38
9.48667381124e-38
2.3022283132e-37
6.32296640617e-37
1.58017121381e-36
4.67394276678e-36
7.32433247829e-36
1.13673267668e-35
1.41023675825e-35
1.77091137944e-35
1.65908045583e-35
1.13526343986e-35
7.47679552712e-36
3.76577093989e-36
1.72366349887e-36
7.23829558258e-37
3.04076604485e-37
1.42430793796e-37
1.94613835922e-37
7.48562310218e-37
5.89534576784e-36
1.57944007776e-35
1.05645171334e-34
4.87114511025e-34
1.83198714339e-33
6.37378246471e-33
1.39411638424e-32
3.92120938595e-32
9.72619080083e-32
2.20246113397e-31
4.17810505105e-31
7.82285641161e-31
1.50876600543e-30
1.87986500585e-30
2.08292407402e-30
1.96779849326e-30
1.61784090033e-30
1.11694514459e-30
5.72754649749e-31
3.50771737875e-31
2.1260654105e-31
1.9896870672e-31
5.57578095157e-31
1.95799525488e-30
9.68663090534e-30
2.83416664979e-29
7.63473534834e-29
2.21568894331e-28
6.56724096446e-28
2.38296139088e-27
6.71873876908e-27
1.57611478943e-26
3.42285126529e-26
4.76657633354e-26
5.02381711835e-26
4.43453146561e-26
3.2512480227e-26
1.60258516804e-26
8.53254996704e-27
4.12585971789e-27
1.97400838845e-27
9.92305323287e-28
7.72295710084e-28
9.66854117872e-28
1.97183097598e-27
3.24256820575e-27
8.69584619883e-27
2.17115014994e-26
3.07922571862e-26
4.94898820856e-26
1.09881921877e-25
3.01311944157e-25
4.64734586499e-25
1.26951414987e-24
3.02317487016e-24
9.016887503e-24
1.61340870562e-23
4.00697512043e-23
7.64297482479e-23
1.51186158346e-22
2.02705053536e-22
2.56308074738e-22
2.99927564542e-22
3.00534354723e-22
2.14820397272e-22
1.23274933877e-22
7.14852794892e-23
4.01591749569e-23
2.25740834684e-23
1.13526968875e-124
1.9484803576e-122
6.29477729055e-121
1.41797633351e-119
2.10502312343e-118
4.439425079e-117
4.89795384162e-116
7.43815602708e-115
9.87967654354e-114
1.02255094637e-112
2.01477677714e-111
2.43053113421e-110
2.66337652135e-109
2.4531067534e-108
2.66159564788e-107
4.53158406587e-106
7.88655217171e-105
3.13045475173e-103
1.34616129391e-101
5.94833553916e-100
8.60160986799e-99
4.72717294206e-97
1.48039764778e-95
4.79887796759e-94
1.03856257018e-92
1.81322948973e-91
4.31641986822e-90
2.46657153672e-89
6.82069859342e-88
1.53045018112e-86
2.18290820938e-85
1.26229979297e-84
5.25930438741e-83
1.02873267159e-81
3.27590166196e-80
1.08672845974e-78
1.41805011109e-77
1.85762294826e-76
3.26962851782e-75
8.5002689592e-74
5.0585504825e-73
3.89073292072e-72
9.17361914951e-71
2.58248057797e-69
1.39342048496e-68
1.86702843581e-67
1.02298967466e-66
4.9146771228e-65
1.39096599061e-64
9.74178993371e-64
8.68403219293e-63
9.82549427908e-62
1.88762205594e-60
9.40532887971e-60
1.01933492524e-58
6.81616621676e-58
2.16974161388e-57
1.09163954387e-56
5.09865822262e-56
1.77607159565e-55
9.94501297831e-55
2.33942649746e-54
6.77285663591e-54
1.72264034391e-53
7.09468327448e-53
2.14193539837e-52
4.72962332542e-52
1.55140033599e-51
5.8121987451e-51
1.82453241349e-50
3.4228672354e-50
5.40300930024e-50
6.80189180469e-50
7.47861916785e-50
8.70260573997e-50
8.53862602465e-50
6.22367242463e-50
4.5232187614e-50
3.25602695642e-50
2.19815293079e-50
1.26032926463e-50
7.35690837098e-51
4.97823271729e-51
7.90786590896e-51
3.51382994347e-50
4.80552966353e-49
3.84461051327e-48
4.90613324836e-47
2.97036687151e-46
2.05173267295e-45
2.39329394086e-44
1.85988987124e-43
1.92731477243e-42
4.69794607523e-42
2.57258900531e-41
2.47098680377e-40
1.40220595942e-39
4.02345402356e-39
1.3220999942e-38
5.59297763256e-38
1.50448454652e-37
7.89029142246e-37
1.92548944491e-36
5.47164202969e-36
1.741052043e-35
3.96798510473e-35
1.01181564051e-34
1.37237480435e-34
1.8815196428e-34
2.45399129895e-34
2.7489749628e-34
2.44894032857e-34
1.74138837625e-34
1.05702754571e-34
6.05955458892e-35
2.81106689667e-35
1.29630968456e-35
5.32523654489e-36
2.33444923614e-36
2.44213020907e-36
1.04304517298e-35
4.40311835316e-35
3.23402152026e-34
8.48540368413e-34
3.13813144272e-33
1.23296897435e-32
3.61191577964e-32
1.28497821724e-31
3.27707097662e-31
9.82619550414e-31
1.99891236528e-30
3.75874793917e-30
7.5644495794e-30
1.38562570458e-29
1.8570135289e-29
2.03304052273e-29
1.96283357295e-29
1.65887508072e-29
8.80462018944e-30
5.34666467441e-30
2.85697979275e-30
1.85340969558e-30
1.58718895373e-30
4.07598499603e-30
1.82018992357e-29
8.19172446906e-29
2.40752704139e-28
6.88695407818e-28
2.71290166253e-27
7.06383108427e-27
2.67148875014e-26
1.41889902928e-25
3.25043752488e-25
7.90918395922e-25
1.07876715433e-24
1.13731752407e-24
1.02105257082e-24
6.70883002114e-25
3.22117114497e-25
1.55378050673e-25
6.91375849314e-26
3.15036552724e-26
1.15914792009e-26
5.62999766927e-27
5.11694601538e-27
7.81235477191e-27
2.51294213028e-26
1.32567853152e-25
3.29163674489e-25
4.33978945778e-25
8.47404032996e-25
2.09846028692e-24
4.14534032293e-24
6.18533380951e-24
1.70442927575e-23
2.68567737412e-23
8.17427825199e-23
2.09653323864e-22
5.45541306034e-22
9.05796033925e-22
2.01568472035e-21
2.73753174432e-21
3.21939270034e-21
3.30348725431e-21
3.06570970374e-21
2.1672881504e-21
1.19331268709e-21
6.49659569158e-22
3.32446140421e-22
2.24109399123e-22
3.33797660841e-121
4.03156513077e-119
1.56234058901e-117
3.12992722681e-116
4.41679632986e-115
9.32222584981e-114
1.22552537645e-112
1.78374100494e-111
2.00372022024e-110
2.87340841831e-109
4.81478657114e-108
5.57809145919e-107
5.35170221372e-106
5.65763547941e-105
4.0129915021e-104
2.08995676838e-103
2.24486015052e-102
3.58614750912e-101
1.03037166099e-99
2.53728527254e-98
6.56121589603e-97
1.21387138446e-95
5.75841383225e-94
1.51643330054e-92
4.92717317687e-91
7.54508736322e-90
4.73625506699e-89
6.93969417321e-88
8.598116221e-87
7.44799769498e-86
1.30824678258e-84
4.33516675782e-83
9.79856340816e-82
3.40492570797e-80
5.04666955229e-79
7.48112288894e-78
1.40867574423e-76
1.00000826682e-75
1.32373746576e-74
4.79306185453e-73
8.31777074635e-72
1.74585751005e-70
6.12816454459e-69
6.83650412537e-68
4.3592652861e-67
3.81248492997e-65
1.08307315951e-64
4.89794229584e-63
1.96061625962e-62
8.42852389873e-62
3.48626018243e-61
4.3898763567e-60
4.42966252955e-59
3.023712669e-58
1.64025806935e-57
7.71614439208e-57
5.95718905724e-56
3.66444881796e-55
1.45881237123e-54
7.96408371492e-54
2.35089544285e-53
7.15323076667e-53
1.69288690832e-52
8.16018054671e-52
1.65662469519e-51
4.36097555499e-51
1.28289585206e-50
6.19868901523e-50
1.36445108972e-49
3.87382993427e-49
7.63140624771e-49
1.14626075546e-48
1.69487260908e-48
2.06349697987e-48
2.12380448658e-48
1.8793035077e-48
1.4254513525e-48
1.13497585371e-48
7.10213467447e-49
4.87612251263e-49
2.90467299843e-49
1.73196546715e-49
1.17582844777e-49
4.71283855612e-49
4.04495009524e-48
5.4330903574e-47
5.33291997118e-46
2.01419955244e-45
2.63616872278e-44
1.41179063541e-43
1.62001704652e-42
1.08903067715e-41
1.35206092943e-40
6.41145699917e-40
3.86257924389e-39
1.23325448527e-38
6.23852313917e-38
1.98059746605e-37
6.07231284268e-37
1.49616552433e-36
8.18056492628e-36
1.79079633702e-35
4.23223061447e-35
1.01719456394e-34
2.93532880789e-34
7.2620235555e-34
1.49753595212e-33
2.3376503449e-33
3.10351558117e-33
3.70202897368e-33
3.91240308572e-33
3.12922495198e-33
2.27796972638e-33
1.38909386228e-33
8.69006413068e-34
3.57466988618e-34
1.62534134921e-34
7.00571857028e-35
3.38767152008e-35
2.74643729997e-35
8.0927153845e-35
4.90825727972e-34
2.44862436035e-33
7.47016859125e-33
4.12025596469e-32
9.68748422803e-32
2.88453043568e-31
1.06727581305e-30
3.0284031648e-30
6.76529367103e-30
1.889018166e-29
3.6477621406e-29
8.51088566188e-29
1.39574486415e-28
1.56781038688e-28
1.66011629508e-28
1.54415285588e-28
1.38937183912e-28
9.77870529878e-29
5.6349561367e-29
3.08505072016e-29
1.78284585688e-29
1.29602594973e-29
1.98218291592e-29
4.84813994084e-29
2.01232218272e-28
1.05973393711e-27
8.3325371181e-27
3.43967414401e-26
7.63114500124e-26
3.77432911085e-25
3.03782103078e-24
7.05747434037e-24
1.70151988005e-23
2.33677653553e-23
2.35486890356e-23
2.13660938367e-23
1.48902032222e-23
6.16880590655e-24
2.25278727575e-24
1.15475889414e-24
3.77953852455e-25
1.57339053385e-25
6.1636818832e-26
5.26058500473e-26
9.48713014511e-26
3.61270358975e-25
1.25863973884e-24
3.00311779212e-24
3.83239750211e-24
9.57226232091e-24
1.61907107364e-23
3.90869642595e-23
6.87383586669e-23
1.80168570863e-22
3.39338823578e-22
1.03205125852e-21
3.39310665433e-21
5.52117316763e-21
1.21032675129e-20
3.38946249192e-20
4.81079170004e-20
5.44463589072e-20
5.58955038627e-20
5.1504989669e-20
3.64378383976e-20
1.71366159033e-20
8.168675329e-21
5.33367319098e-21
3.37853683298e-21
7.72020512773e-118
9.39698644155e-116
3.21427187108e-114
6.54315926123e-113
9.4567547418e-112
1.74065904324e-110
2.51583989662e-109
3.15167891772e-108
2.99915265182e-107
6.29584206595e-106
8.17150679335e-105
1.07546494162e-103
1.14069072868e-102
1.10101141927e-101
6.08938493728e-101
3.35205900764e-100
3.06339162139e-99
2.21312254602e-98
1.28573758111e-97
2.67191373064e-96
3.16672185057e-95
3.36084515781e-94
8.26108776935e-93
1.17770044176e-91
4.14404906595e-90
7.29263064271e-89
8.32132078978e-88
1.36004155141e-86
5.30247328413e-85
8.1323136408e-84
5.2959657358e-83
9.89253810092e-82
3.35611191439e-80
1.75429847178e-78
1.54870514526e-77
2.48453942711e-76
4.28030494436e-75
9.65023155684e-74
1.29130333712e-72
2.0629914767e-71
1.92671877727e-70
4.66818093027e-69
1.0439147729e-67
5.00208746278e-67
8.02915063751e-66
5.84785837499e-65
7.30562244895e-64
7.4717726257e-63
2.27845936992e-61
1.61818635851e-60
5.98839314757e-60
7.52681573952e-59
1.2425871959e-57
1.17422852254e-56
7.50575411418e-56
6.23302279815e-55
2.7432917623e-54
1.69956573197e-53
6.12153105658e-53
2.19018459609e-52
8.59060424e-52
2.17859268532e-51
6.07311131431e-51
1.7888820387e-50
4.20995187183e-50
1.6273918432e-49
3.71194129717e-49
1.11600753733e-48
2.72971009623e-48
7.87403424854e-48
1.68749742596e-47
2.45939552419e-47
3.78908956315e-47
4.15425278008e-47
4.19152054746e-47
4.56073645616e-47
4.04044164212e-47
2.91589041365e-47
2.09324902164e-47
1.09818966595e-47
5.86154866152e-48
3.45639868004e-48
2.43933103237e-48
1.23759882992e-47
1.1864772831e-46
2.00904455582e-45
1.58235452134e-44
1.30738480887e-43
5.9644287452e-43
1.93430402859e-42
2.87333061347e-41
1.62828735526e-40
1.20002876822e-39
6.59162692931e-39
3.07344760003e-38
1.19784587319e-37
4.9676876088e-37
2.16708801524e-36
8.93112177385e-36
2.46886385299e-35
7.18492898353e-35
2.0198903601e-34
4.49534251605e-34
1.20793246931e-33
3.51637639122e-33
9.42777608535e-33
1.88314073592e-32
3.26783988262e-32
4.52853390295e-32
5.36936252156e-32
4.86376865866e-32
4.31170218262e-32
3.10983262057e-32
2.22328076521e-32
1.13853011773e-32
5.76591738397e-33
2.36917024028e-33
1.12495613302e-33
4.98820941364e-34
5.07747800948e-34
1.37431451054e-33
5.25299609164e-33
1.87836818545e-32
7.75533060848e-32
2.13531946257e-31
8.68150640301e-31
3.67536075802e-30
1.09448165015e-29
2.08471350573e-29
6.14832426265e-29
1.71050505418e-28
3.23416448269e-28
6.2586920794e-28
1.16853490544e-27
1.28403714516e-27
1.29257141292e-27
1.17396076757e-27
1.06694741518e-27
7.34595373805e-28
4.43726083676e-28
2.56212894036e-28
1.43069938406e-28
1.03064691178e-28
1.14285814194e-28
2.24913973575e-28
5.62740758393e-28
3.7874593225e-27
1.98441691171e-26
6.84662789837e-26
5.0016912896e-25
5.21842015978e-24
4.31021096989e-23
8.43819379061e-23
2.07518097513e-22
2.73002849252e-22
2.51083875091e-22
2.1535951489e-22
1.47037680645e-22
8.51663151696e-23
3.83512137789e-23
1.85616906394e-23
7.44796726628e-24
2.43492726354e-24
9.26006822297e-25
8.06515281487e-25
1.24426532712e-24
5.26262076749e-24
1.1568305936e-23
3.12969169589e-23
4.55069793311e-23
1.11471073811e-22
2.29339861808e-22
4.21573747093e-22
1.08846608082e-21
1.73445790959e-21
3.05561778976e-21
8.70956418235e-21
3.62218746903e-20
8.12710509595e-20
1.4961249391e-19
3.08580763113e-19
4.30794576756e-19
4.81499572259e-19
5.05022519984e-19
4.83693776527e-19
3.67524277783e-19
2.08348439548e-19
1.06840859417e-19
5.39152762764e-20
3.33767785914e-20
3.03203315448e-114
2.25431217071e-112
8.22946372924e-111
1.43263022923e-109
2.47524301978e-108
3.62099729372e-107
6.77562438975e-106
5.35345145755e-105
6.56525511332e-104
1.0499802418e-102
1.1351147896e-101
1.97996541881e-100
1.75083995795e-99
1.69150849957e-98
1.15145242775e-97
7.0786443098e-97
6.31041474216e-96
4.31562209396e-95
2.23640886621e-94
1.42706065506e-93
6.08793297925e-93
4.08634587566e-92
1.75434042809e-91
3.27139171579e-90
8.84287811568e-89
1.44708714666e-87
3.49997254651e-86
7.57170552059e-85
1.24527870284e-83
2.85737734256e-82
2.17101406102e-81
5.10842761391e-80
9.53342833442e-79
3.41077059668e-77
2.14279458171e-75
2.85924807241e-74
2.59778647008e-73
3.2935508399e-72
6.31614532304e-71
7.26422322688e-70
9.55111503138e-69
9.94805038972e-68
1.63687346783e-66
1.43273552517e-65
2.77056149918e-64
2.28494803688e-63
2.82261529589e-62
1.97505606348e-61
2.35379907066e-60
3.92853980049e-59
2.6459957852e-58
1.28588243997e-57
7.29206381576e-57
1.8495153952e-56
2.10454362686e-55
1.65335675384e-54
2.89402347473e-53
1.78183322879e-52
8.62820472669e-52
1.89020856182e-51
1.00345368752e-50
3.63559041076e-50
7.6530512646e-50
3.36270402334e-49
1.07809712979e-48
2.35954742756e-48
8.53454106713e-48
1.83768374882e-47
5.39801053872e-47
1.49553244063e-46
3.44286612169e-46
6.67199322086e-46
9.4390190519e-46
1.16092113261e-45
1.26763431301e-45
1.22335824956e-45
9.60707480451e-46
7.71190223079e-46
4.32212647271e-46
2.60867026702e-46
1.55504688327e-46
7.88047335555e-47
5.34156694962e-47
1.88055141113e-46
1.43294967286e-45
1.46932071438e-44
2.79624775806e-43
1.86686595294e-42
1.2549197604e-41
1.00138299072e-40
1.26456363533e-39
4.3347316432e-39
2.89982782259e-38
1.49172219817e-37
5.07280149657e-37
1.38811992568e-36
4.86902812365e-36
2.93059959664e-35
7.71684910305e-35
2.28821775795e-34
8.11761475536e-34
1.95832506644e-33
5.04897974263e-33
1.59748953811e-32
2.93231395331e-32
1.0123483284e-31
2.22935646761e-31
3.60299760191e-31
4.75117906395e-31
5.66018261414e-31
5.70590769467e-31
4.83933892e-31
3.46092520845e-31
2.29384577306e-31
1.16794235135e-31
6.40729260632e-32
2.99966433219e-32
1.40132194523e-32
6.92849553191e-33
6.10306069352e-33
1.17695203137e-32
3.41187567079e-32
1.71948926841e-31
6.65430914987e-31
1.56578650063e-30
9.222381992e-30
2.57732842881e-29
9.50227818414e-29
2.3723668297e-28
5.21822684555e-28
1.15791868397e-27
2.47467106594e-27
4.84559548517e-27
9.75354621787e-27
1.28404815876e-26
1.43163606657e-26
1.35475129908e-26
1.06706422494e-26
6.60634138999e-27
3.0280518224e-27
1.81642936402e-27
1.08750277377e-27
7.56957635158e-28
8.27479848394e-28
1.33695739864e-27
5.66936049496e-27
5.3437132788e-26
2.89458325729e-25
1.2369139619e-24
6.3450886413e-24
9.16262410585e-23
4.31511952497e-22
1.262246453e-21
2.64195374914e-21
4.52367446254e-21
4.80261554755e-21
3.91682538233e-21
2.51474859175e-21
9.95123638434e-22
4.86895101705e-22
2.07634238755e-22
7.87901791185e-23
1.98701780763e-23
9.73490898578e-24
1.02304950081e-23
1.40054601783e-23
2.80218158664e-23
1.44034095097e-22
4.21827068764e-22
5.95994416195e-22
1.10339701891e-21
3.0831169878e-21
5.8468709732e-21
1.50832533507e-20
2.77394937279e-20
5.0342856287e-20
1.18954622802e-19
4.27236058915e-19
1.12474212274e-18
1.4601969668e-18
2.6774237763e-18
3.46229105957e-18
3.65145821353e-18
3.84860511599e-18
3.86361318844e-18
3.4517350399e-18
1.87871101661e-18
8.47550552689e-19
4.3865297259e-19
2.86941040112e-19
8.74480600939e-111
4.6656118734e-109
1.83975352083e-107
3.52417284666e-106
5.05160596522e-105
7.26440529627e-104
1.28220935758e-102
9.93328373697e-102
1.13711898266e-100
1.83215365506e-99
2.16618982633e-98
3.22063046625e-97
2.67194389215e-96
2.61389498266e-95
1.71649806469e-94
1.21546020372e-93
9.99888110388e-93
7.57929967545e-92
3.21194708663e-91
2.20836718522e-90
8.32290765602e-90
5.30445090269e-89
2.06135548097e-88
1.11741047737e-87
1.05398982672e-86
1.42540840872e-85
2.01760244633e-84
3.48521976084e-83
4.23307969013e-82
7.87605056733e-81
1.21190267783e-79
4.40076218189e-78
1.32484764595e-76
3.37264771359e-75
4.00196654628e-74
2.40844176976e-72
1.02586756538e-71
1.66858429886e-70
3.82461726363e-69
2.7082262098e-68
2.95632447909e-67
2.6469245502e-66
1.14469660303e-65
1.93069003628e-64
2.01171909779e-63
1.89043271559e-62
2.49113503375e-61
4.7911615603e-60
2.80125907233e-59
5.13209850621e-58
4.59798110774e-57
1.16341191352e-56
2.57367967702e-55
1.02669228927e-54
4.76295037522e-54
5.08811958906e-53
2.35866125044e-52
1.79454702776e-51
9.05354804218e-51
4.31210132883e-50
2.18637835587e-49
6.48812625409e-49
1.33730437504e-48
5.49843613313e-48
1.30532800443e-47
4.12190769985e-47
1.56632635954e-46
5.34471017783e-46
1.3573199391e-45
3.01750863975e-45
5.22671682415e-45
1.26189129038e-44
1.82931744973e-44
2.24086821883e-44
2.41379741412e-44
2.32713057581e-44
2.00897192687e-44
1.46725389886e-44
9.50773607326e-45
5.66829521473e-45
3.68191620386e-45
1.74030941801e-45
1.17857133948e-45
1.57759710377e-45
1.49839995182e-44
2.82188690006e-43
2.63546393679e-42
3.22395685814e-41
1.53160090059e-40
1.67738653686e-39
7.45818564613e-39
6.35264834646e-38
2.06728995614e-37
2.71000523162e-36
7.98212635133e-36
2.31336474296e-35
1.09318009584e-34
4.86388164987e-34
1.66382131381e-33
4.08320759436e-33
1.27099834493e-32
2.87265387789e-32
7.94102612093e-32
1.76858235028e-31
4.58076183439e-31
9.57276573791e-31
2.25881249517e-30
3.79255653115e-30
5.22568402159e-30
6.06620790678e-30
6.18775924543e-30
5.3290605108e-30
3.07307836585e-30
2.01901902371e-30
1.03294148963e-30
6.35233838668e-31
2.81306126407e-31
1.37030360634e-31
6.18782857949e-32
4.77629751541e-32
2.6127898538e-31
1.16696176063e-30
1.75591136653e-30
3.62751213328e-30
1.41971060738e-29
4.98938370107e-29
2.54040804659e-28
4.40080642311e-28
1.00431852963e-27
2.26114181199e-27
8.36960460988e-27
1.68197772446e-26
4.74894009348e-26
1.30250230617e-25
1.94629440129e-25
2.02982124842e-25
1.82370856952e-25
1.33994263874e-25
7.49215476806e-26
2.89413499154e-26
1.36809270034e-26
8.48676264217e-27
6.026968077e-27
7.35991120617e-27
2.3446071107e-26
1.63058271118e-25
3.15002986901e-24
1.97230285943e-23
4.88959157745e-23
1.30413027488e-22
6.796346882e-22
6.82931479064e-21
1.68067824651e-20
4.08009202121e-20
6.62546869222e-20
6.90327784538e-20
6.25360918214e-20
4.65291217217e-20
1.77885624178e-20
6.81464352372e-21
2.84646484161e-21
8.37743069607e-22
3.39628292097e-22
1.38461975567e-22
7.98700828738e-23
1.13239768064e-22
2.93757635429e-22
1.0850972792e-21
3.77026115847e-21
5.19385604104e-21
9.28300330478e-21
2.19563619865e-20
6.22081358882e-20
1.92468151079e-19
3.07031152166e-19
6.47041868078e-19
1.32769311832e-18
4.19364449599e-18
1.01034282912e-17
1.21102895273e-17
2.21090931629e-17
3.2746083329e-17
3.59884430907e-17
3.64073442384e-17
3.23783941647e-17
2.64648835459e-17
1.51708363626e-17
6.79074515399e-18
4.28930009973e-18
2.68347783039e-18
1.26497815836e-107
9.24546303219e-106
3.12554893993e-104
8.84700011532e-103
1.15639055923e-101
1.52568193261e-100
1.86974844376e-99
1.74283852552e-98
1.92732058793e-97
2.79698022325e-96
3.35339851462e-95
3.82062070277e-94
4.37991247899e-93
4.22166682484e-92
2.27517763809e-91
2.0218551104e-90
1.25319410675e-89
1.10169682199e-88
6.44937389746e-88
2.78281841973e-87
1.51733645327e-86
7.13446196865e-86
3.15614631956e-85
1.10203503299e-84
4.63566666389e-84
1.39974097421e-83
8.15180623241e-83
9.56655859923e-82
1.15385944381e-80
2.95732335475e-79
8.17396630909e-78
8.16909970623e-77
1.63154163576e-75
2.20684294303e-74
6.62401689936e-73
2.31459036122e-71
2.28440084046e-70
1.59185504071e-69
1.60109408475e-68
6.42823680522e-68
1.78913093475e-66
1.72667371847e-65
3.17140319397e-64
6.4446976523e-63
1.26791472615e-61
1.69498360755e-60
8.39145274338e-60
1.24155137879e-58
6.40684522592e-58
5.88341593227e-57
6.54933714351e-56
3.73784178059e-55
3.32999167672e-54
4.27741673756e-53
1.31190740659e-52
5.34467011474e-52
5.0695098777e-51
2.14879207327e-50
8.30033000551e-50
5.91025860488e-49
2.89651581211e-48
8.38811622552e-48
4.06404586019e-47
1.28953326459e-46
3.54844658284e-46
1.48514683199e-45
3.55989488117e-45
9.90179521205e-45
3.01163478093e-44
5.66590243264e-44
1.2207088056e-43
2.11565823803e-43
3.26797316006e-43
4.18848087304e-43
4.57462651214e-43
4.55677284366e-43
3.87284665458e-43
3.02881328003e-43
1.99052966215e-43
1.23087652227e-43
6.81503812236e-44
3.66828880421e-44
2.63289593282e-44
5.37795018073e-44
2.85919802868e-43
2.38885536192e-42
7.21903958641e-41
4.46191778924e-40
4.97877475618e-39
4.27149993269e-38
2.11903847772e-37
4.75650017251e-37
1.99270322679e-36
2.05588945635e-35
9.31956467645e-35
4.05585183048e-34
1.55274198308e-33
4.88895383765e-33
1.87165274862e-32
4.35687960088e-32
9.05486863856e-32
2.2504132039e-31
8.11611228155e-31
1.59406737662e-30
4.64252194256e-30
1.01448692066e-29
2.10138820218e-29
3.61416068615e-29
5.27044002516e-29