/*--------------------------------*- C++ -*----------------------------------*\
  =========                 |
  \\      /  F ield         | OpenFOAM: The Open Source CFD Toolbox
   \\    /   O peration     | Website:  https://openfoam.org
    \\  /    A nd           | Version:  8
     \\/     M anipulation  |
\*---------------------------------------------------------------------------*/
FoamFile
{
    version     2.0;
    format      ascii;
    class       volScalarField;
    location    "0.000664";
    object      p;
}
// * * * * * * * * * * * * * * * * * * * * * * * * * * * * * * * * * * * * * //

dimensions      [1 -1 -2 0 0 0 0];

internalField   nonuniform List<scalar> 
22800
(
101384.726865
101387.722488
101388.062921
101391.387804
101393.976862
101396.433974
101398.144583
101398.948536
101400.091404
101402.395603
101405.429303
101408.612993
101410.310903
101412.786594
101414.450303
101414.639017
101414.24452
101414.470462
101415.254532
101415.472137
101413.683134
101411.278455
101409.07107
101406.24069
101402.838519
101399.072106
101395.320371
101391.878777
101389.034184
101386.850423
101385.114863
101383.346502
101382.332895
101381.945355
101382.05362
101382.116331
101383.307752
101383.771986
101384.749499
101387.378724
101390.194833
101393.628935
101395.397253
101400.464638
101402.771253
101406.053978
101408.239694
101409.956395
101411.042669
101412.178311
101414.334631
101417.527788
101422.349084
101427.472441
101431.692547
101438.068745
101446.909087
101453.657567
101456.1514
101457.013044
101459.94105
101464.973886
101471.655714
101478.725536
101484.292899
101489.496046
101495.447747
101501.20517
101505.536571
101507.849834
101508.175545
101507.072291
101508.908849
101506.867458
101510.598899
101514.523369
101516.550474
101516.717562
101514.046941
101508.212553
101500.307178
101491.58068
101484.693993
101480.339272
101477.716602
101478.101626
101482.65713
101487.373793
101486.37942
101485.152167
101482.491139
101478.343969
101481.572887
101484.734151
101488.256853
101490.859227
101489.155918
101481.780852
101474.920488
101472.820647
101475.612622
101480.206397
101483.654492
101487.300724
101487.236825
101484.75114
101481.28334
101478.910797
101479.11974
101487.71153
101489.025632
101499.035607
101497.172946
101488.686449
101480.152796
101475.456959
101472.755663
101470.230134
101471.206369
101472.37581
101470.227033
101466.03872
101460.78352
101461.958723
101455.181521
101447.653208
101441.853573
101440.311587
101442.914847
101446.128258
101448.992946
101449.840934
101448.159886
101442.729339
101440.694321
101425.671907
101425.816917
101421.019896
101416.495284
101412.341187
101407.416651
101400.757822
101396.148307
101392.596323
101387.337219
101387.751407
101385.883909
101381.661922
101378.894131
101377.631509
101375.608352
101374.553604
101373.348063
101372.004444
101369.935035
101363.82874
101361.585378
101356.033473
101349.708429
101343.328416
101335.745658
101330.228651
101327.522426
101327.161918
101327.872294
101321.355451
101312.41632
101298.984985
101286.02708
101280.430919
101282.245082
101285.029802
101289.818701
101292.62401
101293.438846
101292.416016
101290.65416
101288.172359
101288.672352
101291.335176
101293.782583
101296.689493
101300.668508
101303.613072
101306.00658
101308.966382
101312.375937
101316.095143
101321.366955
101319.858121
101428.412914
101432.626335
101433.774326
101436.447067
101438.349131
101441.091125
101444.456265
101448.839578
101453.661088
101458.722706
101464.582676
101470.773006
101476.595684
101483.391904
101489.837589
101493.941368
101496.887626
101500.587014
101504.812485
101508.431943
101509.879154
101509.886269
101509.965657
101510.569272
101511.25319
101511.179845
101511.182936
101511.841667
101513.73084
101517.223226
101521.489934
101525.774964
101530.511316
101535.641998
101541.320989
101546.988985
101553.707886
101559.599312
101566.046912
101574.559828
101583.493234
101592.250218
101598.3718
101608.23478
101614.395551
101620.363653
101624.562027
101627.077437
101628.349915
101629.159317
101630.338705
101633.00313
101637.127345
101641.091124
101643.051652
101646.578634
101654.233355
101661.093032
101664.292098
101666.233538
101669.692913
101676.179148
101682.27977
101689.683299
101696.837189
101702.880316
101709.052683
101715.195757
101720.768592
101724.914721
101727.795592
101729.419155
101732.933428
101735.288708
101737.45249
101735.851526
101736.513573
101738.112826
101739.842747
101739.934788
101737.897151
101734.631997
101731.835136
101729.51327
101727.550225
101726.194315
101726.498009
101727.691781
101729.9865
101734.906235
101737.826731
101738.532697
101745.506128
101754.141247
101763.470185
101772.339203
101776.781739
101773.640013
101765.667396
101760.180451
101761.223518
101768.097128
101773.29867
101774.331891
101769.662389
101762.083097
101754.679182
101750.269488
101749.549115
101758.598101
101757.836494
101764.488944
101758.56074
101749.016677
101741.589227
101740.502751
101742.875085
101740.708622
101736.76355
101731.272157
101723.23682
101716.437876
101709.480791
101709.903755
101700.843195
101690.620449
101681.976262
101678.91722
101681.318107
101683.609112
101683.481069
101678.422525
101669.309656
101655.450892
101644.973541
101620.014492
101611.868652
101598.556978
101586.709222
101577.368341
101568.571961
101556.720681
101546.08645
101536.461313
101523.99685
101519.921236
101509.812153
101498.818316
101491.554538
101486.513839
101478.26882
101470.994166
101461.056303
101448.201108
101431.847025
101417.768619
101404.199335
101389.366012
101374.882169
101360.94666
101344.4675
101332.456911
101326.301387
101325.436564
101324.424638
101314.928536
101303.370096
101282.197214
101263.197659
101256.945391
101261.217854
101265.729026
101269.900106
101269.725457
101265.815996
101258.766994
101250.586348
101244.496376
101245.584048
101252.854266
101259.912069
101267.205449
101273.484755
101278.313781
101283.031987
101288.951598
101295.369422
101302.855211
101312.963732
101311.948256
101494.86479
101500.950116
101504.998095
101510.781327
101516.701615
101523.165037
101530.641857
101539.325891
101548.087608
101556.645142
101565.748314
101573.872756
101580.874631
101589.084009
101597.599228
101603.082221
101606.562507
101611.204123
101616.978119
101622.019287
101624.493951
101624.689192
101624.874708
101625.941137
101627.736063
101628.671852
101629.445854
101631.13755
101634.122472
101639.367495
101645.875949
101652.913654
101660.930059
101670.062464
101680.547482
101690.993158
101702.213781
101712.668087
101723.729276
101736.078546
101748.466301
101760.181424
101767.942691
101779.118265
101787.40159
101795.728544
101802.850896
101808.66956
101813.976751
101819.556371
101826.046692
101833.610488
101841.734375
101849.095944
101852.828342
101857.213224
101867.189394
101876.984939
101882.340622
101885.94266
101891.158308
101899.887996
101907.681187
101915.94948
101924.327321
101932.127664
101942.0711
101952.713794
101962.84241
101969.747632
101974.545618
101978.352158
101986.035959
101990.795959
101995.432349
101996.185681
101996.059083
101996.509199
101998.866819
102002.028905
102004.466606
102004.607423
102003.109309
102000.493966
101997.032656
101993.833481
101992.196537
101991.983677
101993.508198
101999.920259
102005.064123
102009.15632
102018.885875
102031.572243
102043.786275
102054.105379
102060.069842
102059.850873
102052.417079
102044.279784
102040.777121
102045.34076
102049.918053
102048.588158
102042.198793
102032.721065
102024.885777
102021.453747
102021.619633
102030.024858
102027.372722
102031.548838
102023.76991
102016.195033
102014.192405
102018.763585
102019.556976
102013.073409
102006.132472
101994.708893
101979.088064
101966.012871
101956.396079
101960.131036
101952.776037
101942.283503
101929.390472
101918.888061
101912.73605
101907.580831
101899.991999
101888.868152
101874.786917
101856.930383
101845.746952
101817.662019
101805.783583
101787.547324
101768.003599
101750.261032
101734.213811
101715.41513
101698.769933
101684.702546
101668.188076
101661.142183
101643.045861
101624.01493
101607.682992
101593.557724
101573.387775
101556.05574
101537.942533
101515.911553
101485.953845
101467.658138
101446.408057
101425.360124
101404.597945
101385.019682
101360.372811
101340.685619
101326.799403
101320.004981
101315.078823
101300.872282
101284.257118
101255.600763
101232.223447
101223.234002
101225.613442
101226.51418
101226.411588
101220.669949
101210.961574
101200.577629
101194.30247
101193.729851
101199.863645
101209.110492
101217.69464
101226.46511
101234.454045
101241.843435
101250.123127
101260.49659
101272.414411
101286.524265
101304.043733
101302.974452
101567.102447
101575.960139
101582.565264
101590.168484
101597.922815
101605.618203
101614.115538
101623.240409
101632.260414
101641.723027
101652.354827
101661.679371
101669.704661
101679.838473
101691.112049
101698.349626
101702.702518
101708.773952
101716.458089
101722.656148
101725.773308
101726.816388
101727.976047
101729.792693
101732.798406
101735.017349
101736.996097
101740.222012
101744.737829
101752.110886
101761.473277
101772.090931
101784.195403
101797.439437
101811.98972
101826.868681
101842.431709
101857.170342
101872.525863
101888.288831
101902.719465
101916.802642
101926.752135
101937.265471
101944.550127
101952.664874
101960.747336
101968.620984
101977.450208
101987.826109
101999.938281
102012.761618
102026.636707
102040.887737
102050.017432
102056.691156
102068.475774
102081.377631
102089.289014
102096.037367
102104.315799
102114.189008
102122.190994
102131.857076
102142.821902
102154.195601
102168.3177
102182.248397
102193.162658
102199.783909
102205.307874
102209.273086
102217.772736
102225.975297
102234.630481
102239.534951
102241.20435
102239.493621
102237.199252
102238.004275
102242.823793
102246.819076
102249.139995
102250.094333
102248.025845
102245.157498
102242.622369
102241.669895
102242.669624
102249.368796
102255.082343
102259.78449
102270.925561
102283.646977
102294.164481
102303.485242
102310.397002
102314.618338
102311.94082
102303.711064
102297.159377
102300.926919
102306.276565
102303.368039
102296.919547
102287.846219
102280.923114
102278.283122
102277.723687
102286.09526
102278.611818
102280.210497
102270.307608
102263.489408
102263.945629
102270.208039
102272.604471
102266.823335
102254.586292
102234.65597
102212.64301
102197.172674
102186.63707
102189.644869
102182.795365
102172.764145
102157.222441
102140.023031
102125.061658
102108.968724
102086.481881
102065.718531
102046.498101
102029.745211
102026.183182
102001.752511
101990.031585
101967.407739
101938.049451
101908.179301
101882.527653
101857.488993
101837.917696
101822.610825
101803.674514
101792.406161
101765.705133
101737.219312
101710.876352
101687.915341
101659.069246
101633.57566
101607.032554
101576.471366
101536.650185
101511.856344
101486.008886
101462.33077
101439.19371
101415.489537
101383.119462
101354.461023
101329.53969
101311.883781
101297.449165
101275.825829
101254.758537
101227.209256
101206.657164
101194.224604
101189.843933
101181.824626
101174.136046
101163.632521
101155.149546
101148.874155
101149.321172
101155.733434
101166.111305
101175.656947
101183.819656
101191.829498
101200.799597
101210.967074
101223.140283
101236.842917
101252.385054
101271.106205
101295.093319
101295.002916
101632.27601
101644.424274
101652.683653
101662.183013
101670.815792
101679.330134
101687.978291
101697.143714
101706.570418
101716.977724
101728.188621
101737.767756
101747.20943
101760.516264
101774.702076
101784.084529
101792.160114
101803.562154
101815.555184
101823.562357
101828.824949
101834.388178
101839.706729
101844.246956
101849.928221
101855.495661
101861.349317
101868.341966
101876.409258
101886.699895
101898.602048
101910.773713
101922.822323
101934.80407
101948.328849
101963.802103
101980.7276
101996.476652
102012.89942
102029.40135
102043.750071
102058.879304
102071.675716
102083.784088
102092.325202
102102.733447
102113.367276
102124.315612
102136.437518
102150.525669
102166.306821
102182.117886
102199.354035
102219.205837
102235.662201
102248.051027
102262.741605
102277.778474
102288.262782
102297.660935
102309.650809
102323.476425
102333.260421
102345.188231
102359.340184
102373.444343
102388.179364
102400.876105
102411.012016
102418.531461
102424.336419
102427.890425
102436.531927
102447.798938
102460.240791
102468.582379
102473.895959
102472.513642
102464.599589
102458.165005
102460.80705
102468.238488
102477.10097
102485.808983
102489.475138
102490.217896
102488.690195
102487.821452
102488.497567
102493.839187
102498.278754
102498.417011
102506.977808
102514.218673
102518.406822
102523.968834
102530.825592
102540.282647
102548.852679
102551.335405
102547.539417
102546.930129
102547.710083
102544.100676
102540.333184
102535.459788
102532.602013
102532.885502
102532.151556
102535.536431
102521.67687
102516.867195
102505.510995
102499.976974
102499.955277
102503.809104
102503.080496
102494.45765
102478.39979
102456.084675
102432.51882
102414.923241
102402.155272
102403.608267
102396.798277
102387.343
102371.173859
102348.554621
102324.641994
102298.041978
102265.599372
102240.010003
102220.996425
102208.799
102211.125804
102189.761519
102178.535526
102149.836994
102107.196546
102059.634244
102020.73611
101987.827673
101966.441824
101951.211358
101929.122286
101910.504379
101874.481907
101834.297862
101797.344501
101766.441722
101731.957093
101702.61908
101671.971976
101636.821439
101593.574519
101561.699305
101531.346407
101502.619177
101473.973208
101444.871968
101406.669108
101370.867562
101336.21653
101304.182565
101276.129439
101245.550458
101220.191642
101195.188791
101180.423813
101166.020081
101151.62435
101128.482455
101111.389154
101102.394758
101102.268825
101102.971482
101108.96136
101119.669621
101132.621627
101142.202474
101149.790696
101158.007983
101169.457362
101182.817351
101198.440322
101214.682613
101233.474346
101256.673032
101286.778798
101288.260992
101687.241531
101702.371897
101712.402002
101722.755685
101732.59518
101742.765107
101752.512347
101762.465706
101772.709345
101783.820321
101795.194404
101805.548302
101817.400832
101832.650447
101845.870716
101856.102139
101868.809161
101883.965021
101896.317846
101904.583824
101913.354017
101924.602345
101934.916475
101944.269938
101955.142963
101966.109008
101977.75559
101989.517829
102001.892604
102014.913993
102028.595114
102041.537989
102053.964136
102066.314538
102081.718748
102099.017546
102117.733075
102134.621136
102151.805368
102168.595273
102182.412075
102197.578661
102212.906083
102227.080952
102239.73078
102254.551775
102269.167409
102283.355136
102297.209623
102311.863498
102326.835793
102341.113622
102357.05362
102376.772813
102396.090743
102412.854525
102430.300162
102445.061941
102456.867908
102467.082908
102481.990049
102501.415568
102518.43196
102537.289282
102557.054099
102573.742114
102587.607492
102599.126367
102610.284432
102621.177564
102632.307364
102642.460168
102648.558017
102656.536761
102665.871386
102673.319124
102681.192475
102685.693377
102682.699656
102674.711231
102673.607421
102682.180065
102695.144608
102709.466673
102719.552502
102725.63636
102726.092814
102724.158935
102722.137357
102722.580394
102723.950611
102720.221277
102723.973604
102727.558131
102729.46892
102733.395285
102741.507321
102753.790514
102767.439051
102777.177787
102777.383931
102773.952696
102767.927162
102760.922072
102758.753145
102757.796135
102759.464775
102762.992391
102763.152393
102765.696307
102748.398409
102742.273058
102730.655097
102723.252528
102719.455496
102718.49345
102714.052529
102702.641747
102684.608497
102661.77004
102638.320948
102621.447504
102607.630652
102607.677534
102597.002892
102583.222999
102564.379188
102538.383221
102509.002032
102478.267034
102446.269864
102423.634291
102406.710784
102393.948606
102392.066844
102364.741881
102349.450642
102312.926983
102261.70819
102203.417369
102153.049708
102111.43776
102086.06469
102067.94424
102038.620206
102010.250106
101964.831111
101916.896364
101874.086892
101839.114149
101801.609491
101769.993158
101737.926616
101701.531721
101657.911606
101620.701733
101587.635051
101552.926305
101513.785313
101475.724642
101428.011457
101381.225077
101335.732447
101292.599438
101256.244579
101218.318763
101189.084443
101165.33229
101153.582506
101136.34423
101111.014511
101076.549315
101057.750543
101052.573956
101059.42561
101066.527642
101076.23444
101087.884673
101101.032962
101110.650593
101118.789909
101128.205655
101142.405209
101158.171379
101176.355045
101194.942508
101216.965556
101244.152915
101279.278126
101282.86059
101737.706247
101755.317947
101767.348285
101779.698139
101791.529542
101803.704011
101815.433574
101827.151319
101839.008659
101851.11248
101862.735206
101873.817365
101886.607391
101900.864963
101912.618592
101923.91893
101939.139767
101954.126552
101964.397776
101975.016945
101988.882524
102003.747254
102017.282228
102031.550507
102047.253034
102063.590948
102080.424851
102097.146806
102112.93946
102127.935761
102143.096626
102157.855136
102173.676121
102188.980517
102206.955004
102225.540041
102245.116782
102262.782369
102279.643521
102295.353406
102308.426157
102321.98006
102336.483309
102350.514631
102365.305629
102383.46055
102401.602559
102419.013885
102436.193372
102453.338883
102469.30771
102484.462346
102500.734686
102519.702587
102538.685839
102557.278363
102575.4246
102591.765872
102609.145758
102624.784667
102645.000605
102670.790032
102695.637361
102722.060189
102744.716825
102759.765932
102769.320424
102776.702451
102787.269756
102803.354995
102823.578859
102843.534827
102854.093902
102857.406086
102856.802055
102855.853804
102859.74422
102870.817636
102882.97368
102887.343734
102888.851357
102895.444208
102905.281759
102917.553195
102929.960037
102939.212999
102941.371933
102937.792104
102931.476761
102926.354642
102925.302576
102921.900628
102924.91948
102927.935234
102930.288248
102934.857201
102942.874759
102952.405783
102965.704722
102980.437907
102986.425591
102983.122111
102971.700326
102962.324047
102964.214189
102967.069193
102969.461331
102971.188478
102967.984278
102968.311656
102950.941765
102945.827897
102938.672072
102933.580237
102925.849429
102918.299859
102911.472473
102900.713952
102887.524477
102869.041818
102847.912168
102831.278372
102811.805667
102803.72642
102785.523056
102762.139761
102735.672481
102705.313991
102673.672364
102645.600605
102621.878476
102609.190656
102595.193474
102573.176184
102551.007798
102502.784961
102473.010204
102427.220365
102377.064308
102324.258305
102276.79746
102231.448936
102199.993881
102174.778688
102134.579278
102097.132332
102043.653955
101992.646119
101948.110476
101911.913225
101872.320973
101837.71938
101802.981773
101763.977893
101717.867998
101675.277919
101636.329516
101591.566057
101540.597798
101492.688891
101438.195776
101388.570984
101340.202205
101291.455303
101248.132688
101202.678551
101169.047354
101143.067564
101128.615335
101104.98894
101072.273781
101036.352261
101018.919244
101016.05369
101025.012009
101034.081659
101044.581775
101054.991696
101066.239356
101076.549398
101087.207521
101099.890549
101117.592346
101135.700151
101155.882619
101176.74933
101201.860543
101233.071321
101273.156165
101278.893343
101789.823274
101810.036149
101824.563132
101839.732994
101854.444552
101869.815795
101884.058969
101897.53567
101910.275473
101922.464326
101933.626398
101944.491034
101956.161908
101967.399313
101977.005857
101988.501929
102003.198257
102014.679985
102023.077236
102036.543371
102053.152703
102068.698695
102083.949268
102101.811354
102121.559563
102141.825256
102162.103914
102181.155389
102199.045638
102216.678615
102234.525716
102253.282606
102273.416867
102292.706051
102312.160706
102330.732082
102349.564866
102367.445488
102385.440754
102402.588765
102418.977837
102437.417796
102455.806397
102471.33502
102487.871837
102506.603562
102524.332052
102541.70413
102560.269292
102579.583009
102599.668197
102621.226379
102644.393395
102669.484808
102691.297919
102709.580015
102724.165937
102736.937367
102753.58411
102774.180137
102800.289376
102825.78364
102849.561422
102876.927195
102900.771036
102918.185666
102932.352859
102943.148971
102954.298194
102970.728289
102993.239942
103017.898689
103034.977556
103039.277216
103034.771099
103026.581897
103024.470871
103036.931154
103060.688163
103079.798293
103088.743702
103093.192402
103094.544174
103098.67411
103109.077803
103120.206771
103127.04123
103127.267524
103121.174308
103113.729803
103110.790441
103108.883646
103116.294448
103126.38981
103137.679395
103146.682959
103150.594889
103151.601425
103156.958657
103169.908119
103177.699521
103174.168118
103159.758692
103149.795925
103152.375499
103154.975007
103157.400334
103159.916083
103157.249705
103158.817783
103145.693691
103143.474716
103138.421226
103132.34596
103117.814221
103100.883548
103090.262279
103080.982434
103077.867708
103070.837248
103056.472578
103038.505263
103010.896058
102992.576823
102966.405397
102937.670847
102906.824102
102872.862588
102839.537201
102812.367721
102791.517626
102780.570654
102762.897188
102729.026127
102688.710408
102622.271517
102575.318303
102516.959126
102466.807368
102423.012224
102386.574871
102344.301546
102307.475621
102272.590822
102220.197938
102175.633614
102117.186666
102065.851394
102022.870034
101988.311198
101948.371556
101907.709963
101863.969771
101816.387065
101763.768984
101716.313657
101668.382671
101614.806366
101554.831162
101499.834952
101442.193729
101391.318855
101342.447168
101292.867961
101245.830991
101195.883303
101158.46966
101127.277382
101105.599877
101076.123062
101040.409478
101006.470504
100991.720721
100989.574955
100997.236415
101004.648853
101012.606371
101020.029187
101028.59661
101040.622531
101055.965481
101073.807114
101095.402123
101115.618554
101137.474302
101160.741401
101188.633251
101223.98474
101268.469859
101276.67591
101852.903161
101876.333663
101893.921869
101911.941351
101928.277377
101943.505748
101957.275291
101970.440265
101982.368057
101993.574713
102003.955858
102014.410702
102024.582146
102033.164235
102041.495994
102052.604787
102064.478854
102072.81586
102082.413001
102097.633862
102113.394805
102127.989884
102144.070628
102163.749479
102185.01319
102206.874853
102228.95397
102250.314621
102270.815096
102292.092893
102313.925326
102336.72493
102359.989269
102382.461726
102403.430013
102422.245981
102441.158597
102459.972506
102480.341436
102500.813019
102521.572041
102545.119972
102570.126296
102591.842349
102612.543955
102632.262276
102649.023627
102664.549045
102680.969319
102699.962744
102721.942484
102743.949245
102767.722402
102794.544912
102820.847925
102847.600101
102869.449539
102883.573643
102899.722779
102921.990547
102946.949072
102965.321039
102981.456147
103001.56751
103022.598754
103045.364569
103072.145178
103096.384802
103114.878149
103129.63614
103146.572091
103168.815747
103189.116346
103200.883458
103201.730767
103194.499466
103190.194583
103197.541507
103218.565922
103241.525106
103255.437927
103260.279016
103257.712323
103257.02125
103264.177658
103277.295094
103292.000782
103301.833344
103302.814968
103297.231782
103292.523182
103290.082447
103300.193794
103315.72327
103331.227961
103339.559935
103340.743594
103337.367649
103337.334325
103346.322776
103352.655207
103347.375824
103328.708042
103319.083542
103321.872676
103324.537925
103329.925224
103336.396011
103337.579094
103342.9007
103335.24159
103335.112299
103329.18829
103320.375687
103300.89305
103275.593537
103257.036954
103244.605732
103244.016949
103242.280637
103233.2471
103214.885059
103180.492712
103154.457899
103125.102834
103097.561071
103070.369593
103039.927356
103007.674274
102977.807312
102948.045907
102924.299228
102895.916348
102855.258162
102810.29932
102735.490347
102674.846996
102605.059107
102550.17967
102511.772386
102484.469759
102445.374388
102403.436357
102360.386131
102298.774308
102250.716695
102191.247534
102141.0583
102099.707392
102064.683034
102019.560619
101965.398433
101908.552987
101852.144457
101795.077476
101744.584572
101690.05799
101630.504208
101564.272782
101504.514415
101443.691452
101391.039814
101341.999461
101295.062966
101244.719433
101195.25648
101155.714709
101116.534729
101082.770273
101046.053957
101010.988752
100981.250923
100971.316938
100969.946338
100974.015578
100976.999648
100980.11253
100983.407855
100991.263644
101006.262159
101025.874711
101049.516101
101075.072535
101097.636003
101121.461156
101147.177505
101177.128866
101215.913957
101264.228657
101275.120278
101924.611774
101948.239806
101963.862392
101980.633229
101996.31002
102010.00448
102022.501895
102034.555804
102045.853202
102056.884658
102067.788025
102078.996678
102089.37772
102098.644356
102108.70414
102119.698427
102129.270852
102137.943221
102151.170752
102167.404945
102181.765522
102196.617695
102213.836556
102233.909225
102255.464549
102278.136456
102301.722904
102325.479692
102348.943797
102373.325087
102398.211269
102423.127189
102448.199547
102471.382889
102492.358234
102511.206475
102530.758027
102551.69514
102574.751485
102598.220257
102622.166826
102648.505988
102676.237638
102701.887806
102727.093232
102751.784877
102775.279863
102798.04907
102820.395373
102842.51971
102862.561724
102879.369922
102896.951513
102915.47438
102936.564346
102965.742914
102995.626037
103018.417174
103041.853355
103068.303542
103092.405368
103104.093113
103111.884685
103123.276668
103136.181047
103159.055502
103194.80577
103231.939634
103260.892298
103277.236332
103285.522706
103295.562163
103311.716392
103332.197795
103348.038853
103353.983595
103354.175752
103355.102208
103362.47783
103376.03404
103390.031385
103398.433449
103399.873527
103403.448133
103411.47809
103425.300534
103444.937586
103462.68583
103473.837652
103476.102972
103471.863542
103464.019687
103466.192981
103474.036472
103481.591001
103488.404878
103495.457348
103499.504545
103503.699621
103510.831003
103511.322419
103497.955565
103473.427989
103466.894537
103473.3512
103482.882233
103496.813168
103507.352946
103509.261894
103510.950591
103498.630548
103493.251294
103484.743865
103476.183381
103460.76935
103438.505989
103417.173472
103398.393481
103388.231186
103378.998555
103368.108374
103350.056115
103313.988407
103286.032894
103256.912526
103232.063401
103210.033212
103185.205113
103156.516741
103124.727308
103081.816912
103039.532162
102999.342406
102956.776858
102918.1917
102847.605579
102786.102499
102714.553337
102653.35904
102607.038023
102577.934455
102537.830395
102489.292899
102440.006513
102372.243342
102323.289294
102266.047791
102217.936441
102176.073284
102135.266368
102078.846043
102008.866437
101942.376733
101880.764268
101820.365352
101767.382358
101707.406292
101643.684754
101574.301849
101512.528076
101448.957883
101393.421953
101340.371929
101294.002624
101240.304938
101193.386807
101152.478473
101104.578154
101057.836184
101014.786157
100983.517606
100958.543442
100952.34132
100950.865991
100950.791798
100948.244343
100945.325531
100947.506646
100958.635094
100977.157521
100999.913578
101028.037635
101057.497138
101082.722885
101108.954267
101136.934389
101167.638264
101208.370408
101259.97715
101275.095464
101983.375143
102006.470771
102021.506043
102034.412878
102046.374044
102059.439438
102071.643806
102084.141434
102096.487038
102108.697282
102121.245438
102134.152074
102146.712703
102159.852004
102175.016664
102188.893099
102200.274402
102214.071326
102232.124148
102248.052465
102261.880042
102278.893138
102297.187357
102316.623913
102337.743637
102360.875432
102385.459049
102411.41816
102436.798369
102461.478935
102485.546893
102508.905276
102533.263071
102556.567264
102578.689732
102600.067155
102623.193393
102648.19511
102673.602069
102696.622376
102718.06408
102741.264158
102766.924994
102792.689396
102819.230637
102848.294957
102878.891365
102912.661395
102947.303887
102979.765168
103006.36978
103023.833187
103032.854275
103039.061645
103048.655436
103071.317404
103102.820915
103135.489466
103170.522099
103205.390035
103234.60816
103245.14539
103245.907597
103247.661622
103252.367094
103270.283228
103304.870099
103344.748952
103380.630111
103401.60718
103409.006014
103413.594889
103424.509762
103447.681843
103473.886859
103494.395278
103503.474767
103501.70536
103497.632677
103498.672382
103508.144149
103521.165611
103533.993087
103547.903067
103559.595097
103568.957898
103582.180512
103597.835759
103612.972885
103623.078441
103624.794605
103616.203217
103610.700176
103609.7904
103610.301495
103618.328322
103630.821003
103643.716638
103655.707749
103662.046166
103653.72284
103631.149974
103605.124525
103604.137101
103617.422854
103637.592027
103658.763123
103670.389875
103669.085622
103659.372601
103633.949619
103618.703024
103605.481288
103596.996531
103588.754815
103578.490769
103564.973571
103543.891324
103521.117044
103499.438146
103481.33982
103461.725273
103427.143451
103398.189357
103370.59509
103347.771149
103326.487157
103301.620203
103273.904475
103243.123554
103191.804298
103136.233539
103087.950632
103045.318767
103016.358096
102961.316651
102908.926652
102840.032415
102773.207811
102715.532406
102673.691688
102624.088204
102566.581893
102511.902194
102441.250197
102393.426989
102339.232499
102291.868806
102245.813804
102195.902138
102125.961306
102043.127879
101971.834868
101907.955069
101844.540621
101789.249672
101724.157679
101656.805381
101586.811182
101524.220055
101459.273306
101399.008574
101339.578147
101287.906975
101231.284055
101184.789044
101141.761185
101086.838574
101029.200093
100982.800318
100957.348484
100937.473936
100932.501369
100929.656955
100925.927675
100919.037946
100913.198067
100917.884669
100933.730591
100955.500945
100979.572961
101010.054095
101042.039903
101069.696487
101098.769273
101128.663213
101159.201662
101200.593651
101254.918331
101276.211207
102017.858463
102041.533813
102054.331899
102068.632941
102082.526586
102095.733815
102108.952337
102122.397808
102136.411569
102150.57283
102165.657201
102181.443979
102197.863683
102216.255319
102236.312826
102254.650814
102273.698297
102296.597423