/*--------------------------------*- C++ -*----------------------------------*\
  =========                 |
  \\      /  F ield         | OpenFOAM: The Open Source CFD Toolbox
   \\    /   O peration     | Website:  https://openfoam.org
    \\  /    A nd           | Version:  8
     \\/     M anipulation  |
\*---------------------------------------------------------------------------*/
FoamFile
{
    version     2.0;
    format      ascii;
    class       volScalarField;
    location    "0.000664";
    object      rho;
}
// * * * * * * * * * * * * * * * * * * * * * * * * * * * * * * * * * * * * * //

dimensions      [1 -3 0 0 0 0 0];

internalField   nonuniform List<scalar> 
22800
(
0.0702349353918
0.070233585914
0.0702295068036
0.070225390383
0.0702203744865
0.0702162199427
0.0702124809698
0.0702086780762
0.0702051852225
0.070202237759
0.0701993883308
0.0701962130017
0.0701918650872
0.0701879539573
0.0701842753246
0.070180406197
0.0701765742843
0.0701731913395
0.0701701326147
0.0701668757419
0.0701628437887
0.0701590152925
0.0701560616432
0.0701535669636
0.0701512998068
0.0701492135652
0.0701476527891
0.070146837487
0.0701469287766
0.0701479952445
0.0701501321873
0.0701531981714
0.0701576019651
0.0701632653236
0.0701700875956
0.0701777441911
0.0701867273741
0.0701958159434
0.070205086978
0.0702149660889
0.0702249985726
0.0702354217148
0.0702449989287
0.070256118896
0.0702664809241
0.0702781097169
0.0702899896672
0.0703024231283
0.0703150414567
0.0703276703278
0.0703407897553
0.0703547525212
0.07036982344
0.0703847048873
0.0703980531116
0.0704109598701
0.0704232755316
0.0704326618193
0.0704381739771
0.0704413885054
0.0704445425602
0.0704480146048
0.0704511923097
0.0704524371274
0.070450672364
0.0704464205129
0.0704397440798
0.0704294575898
0.0704142160646
0.070393219919
0.0703661766015
0.0703331609186
0.0702964390191
0.0702564032741
0.0702245277742
0.0701990734608
0.0701789361591
0.0701636879602
0.0701521805205
0.0701433408884
0.0701363639228
0.0701307757332
0.0701279113303
0.0701281889149
0.0701313401171
0.0701386990403
0.0701511346635
0.0701665030435
0.0701815481663
0.0701987378018
0.0702165308641
0.0702337260889
0.0702547936568
0.0702768715757
0.0703006297343
0.0703263036096
0.0703524561916
0.0703757861798
0.0703951697975
0.0704117951573
0.0704255831346
0.0704353928869
0.0704407572762
0.0704435042923
0.0704419777278
0.070435104765
0.0704210848633
0.0703987021968
0.0703666539802
0.0703258284925
0.0702701195441
0.070220214721
0.0701792401901
0.0701484341918
0.0701284244246
0.0701180879939
0.070113621853
0.0701123443478
0.0701164870612
0.0701265031522
0.0701424411396
0.0701662269933
0.0701988968742
0.070242825802
0.07028356945
0.0703148768926
0.0703375600594
0.070353772561
0.0703648531552
0.0703706525436
0.0703726553874
0.0703708108117
0.070362066889
0.070342588147
0.0703131962373
0.0702647364746
0.0702188262866
0.070180733716
0.0701562342071
0.0701426390501
0.0701359812696
0.0701330185914
0.0701361925182
0.0701475747977
0.0701686538873
0.0702040178876
0.0702437752421
0.0702740104941
0.07029319065
0.0703038936804
0.0703074198551
0.0703066393194
0.0703018131927
0.0702898933329
0.0702679011079
0.0702340201174
0.0702018172388
0.0701795274248
0.0701668516171
0.0701607470146
0.0701582573425
0.070161924235
0.0701736974088
0.0701946644964
0.0702195898627
0.0702342947232
0.0702394611844
0.0702367522136
0.0702301868836
0.0702238888603
0.0702170713402
0.0702056259163
0.0701942523072
0.0701873819456
0.0701845568608
0.0701840564555
0.0701855831929
0.0701907206295
0.0702010131804
0.0702117361318
0.0702175416431
0.0702203239512
0.0702218563732
0.070220719624
0.0702166040173
0.0702110893911
0.070207720242
0.0702073391758
0.0702095153744
0.0702093187434
0.0702640929789
0.070261198626
0.0702551386114
0.0702481652388
0.070240644123
0.0702350408391
0.070230854478
0.0702278003996
0.0702251877108
0.0702227072388
0.0702204806772
0.0702180554326
0.0702151981718
0.0702131038003
0.070211463734
0.0702092133417
0.0702067339341
0.0702048848578
0.0702034312039
0.0702018047898
0.0701992964953
0.0701965187017
0.0701945594717
0.0701937136546
0.0701936770959
0.0701938185495
0.0701945045413
0.0701961607889
0.0701991167707
0.0702036164583
0.0702093522003
0.0702160526274
0.0702239875845
0.0702331554756
0.0702436053547
0.0702549756396
0.0702675996034
0.0702802201585
0.0702931275636
0.0703069014504
0.0703209139106
0.0703348262163
0.0703473520164
0.0703618739203
0.0703751677807
0.0703891085934
0.0704027693319
0.0704163355146
0.0704299194063
0.0704435917083
0.0704575665965
0.0704726150359
0.0704888766982
0.070504828515
0.0705185650949
0.070531351096
0.0705441335234
0.0705543915036
0.0705609151895
0.0705652940745
0.0705692840706
0.0705738797625
0.0705771331078
0.0705790022876
0.0705781593799
0.0705742705068
0.0705675284889
0.0705571904362
0.0705422235176
0.0705216448549
0.0704952528744
0.0704629440447
0.0704263618291
0.0703878112217
0.0703546245688
0.0703260307438
0.0703050090829
0.0702905179102
0.0702814810916
0.0702760698032
0.0702727197669
0.0702706527814
0.070270327393
0.0702721299213
0.0702766256851
0.0702842759775
0.0702956673061
0.0703103239821
0.0703282216425
0.0703497045764
0.0703713850513
0.0703920323027
0.0704159244511
0.0704415383269
0.0704689121098
0.0704982028984
0.07052775919
0.0705538962391
0.0705738445243
0.0705897222144
0.070603339275
0.0706146496393
0.0706207372188
0.0706218053899
0.070617806961
0.070608189705
0.070592013362
0.0705683082399
0.070535118954
0.0704932708553
0.070435011474
0.070382112876
0.0703383445725
0.0703068693139
0.0702876882534
0.0702795241594
0.0702778417357
0.0702772075925
0.0702799399774
0.070287842398
0.0703018790752
0.0703251734986
0.0703576328507
0.0704016972491
0.0704414119869
0.0704714133747
0.0704926426223
0.070507951238
0.0705186331107
0.0705235514882
0.0705236497272
0.0705182567139
0.0705048682815
0.0704800766524
0.0704451751159
0.0703902202194
0.0703384880383
0.0702947577979
0.0702658671772
0.0702493623699
0.0702404007334
0.0702344798529
0.0702346629075
0.0702428123582
0.0702598244777
0.0702929717901
0.0703283783539
0.070354679988
0.0703709539642
0.0703790775675
0.0703786524639
0.0703736372848
0.070363177312
0.0703441870628
0.0703134462061
0.0702741553685
0.0702348980471
0.0702067052684
0.0701885796973
0.0701770600409
0.070168853131
0.0701692584225
0.0701791199878
0.0701992560512
0.070222559674
0.0702348194822
0.070238452373
0.0702317111565
0.070221118939
0.0702136016875
0.0702074567506
0.0701964955454
0.0701843628866
0.0701754669204
0.0701697264322
0.0701658029248
0.0701639719415
0.0701671006068
0.0701774469695
0.0701902502955
0.0701985271889
0.0702039446809
0.0702068587821
0.0702065940635
0.0702036090674
0.0701996124845
0.0701978263223
0.0701993989773
0.0702042700762
0.0702042141031
0.0703075693142
0.0703009949415
0.0702918193322
0.0702820918897
0.0702729679914
0.0702659128852
0.0702606291455
0.0702566562722
0.0702530237722
0.0702493531802
0.0702459616167
0.0702421873586
0.0702381557816
0.0702353397127
0.0702333728366
0.0702304613019
0.0702269201293
0.0702243436188
0.0702226147577
0.0702207774574
0.0702179138076
0.0702143745735
0.0702116325077
0.0702102711125
0.0702103508536
0.0702109383454
0.0702120158415
0.0702142732966
0.0702179087762
0.070223433344
0.0702304691704
0.0702388200325
0.070248837677
0.0702606927301
0.0702745214254
0.0702895365767
0.0703059457652
0.0703226394002
0.0703397733475
0.0703573162428
0.0703746448638
0.0703913859685
0.0704059461195
0.0704222731593
0.0704377735748
0.0704540934439
0.0704706932988
0.0704876065394
0.0705050773744
0.0705232473599
0.070542305845
0.0705624755533
0.0705836497166
0.0706044780067
0.0706222735585
0.0706384704112
0.0706550572023
0.0706690868733
0.0706786890987
0.0706856236321
0.0706919730525
0.0706988442192
0.0707040060079
0.0707074525601
0.0707078524632
0.0707047846239
0.0706992652883
0.0706899732407
0.0706754724414
0.0706537202065
0.0706247617872
0.0705888334889
0.0705490407613
0.0705075489719
0.0704729236758
0.07044347007
0.0704203403342
0.0704040293979
0.0703946020041
0.0703905274033
0.0703897025833
0.0703897928869
0.0703904213369
0.0703928004247
0.0703977036613
0.0704059426369
0.0704181435063
0.0704340649682
0.0704535367932
0.0704777262318
0.0705023498004
0.0705260784654
0.0705525902739
0.0705811821451
0.0706106228691
0.0706409087508
0.0706716066845
0.0707006659437
0.0707236074023
0.070740705372
0.0707541256228
0.0707659168272
0.0707730282503
0.0707737599836
0.0707691821148
0.0707589623341
0.0707425522965
0.0707184428177
0.0706836893053
0.0706383990149
0.0705753007771
0.0705173443142
0.0704700945828
0.0704383892666
0.0704218036484
0.070416984963
0.0704153939095
0.0704138549613
0.0704171945249
0.0704244310104
0.0704368139065
0.0704588079872
0.0704914892635
0.070538356796
0.0705799315394
0.0706109497286
0.0706310003349
0.0706430770194
0.0706494384494
0.0706504708591
0.0706466534565
0.0706375749464
0.0706213405335
0.0705942531619
0.0705585361801
0.0705006378094
0.0704446708681
0.070396532783
0.0703629450513
0.0703421625182
0.0703296595541
0.0703204891799
0.0703189203125
0.070326330281
0.0703428579487
0.070375702901
0.0704079624729
0.0704307750077
0.0704427930413
0.0704466550293
0.0704405910412
0.0704295552806
0.0704137930827
0.0703892672766
0.0703506568857
0.0703077981376
0.0702633161338
0.0702310928761
0.0702091133339
0.0701939758908
0.0701810440181
0.0701779902822
0.0701846377398
0.0702022862646
0.0702242268675
0.0702345479328
0.0702360402481
0.0702261126223
0.0702126313231
0.0702027371063
0.0701944664561
0.070180445932
0.0701650055781
0.0701526193558
0.0701436497608
0.070137761984
0.0701370850478
0.0701431392389
0.0701563904353
0.0701705840951
0.0701797534583
0.0701859737674
0.0701895866566
0.0701901252642
0.0701884016655
0.0701861569847
0.070186609606
0.0701908952801
0.0701992416317
0.0701987944769
0.0703549317534
0.070344841288
0.0703324678921
0.0703197567902
0.0703077704154
0.0702971083615
0.0702878098442
0.0702793606789
0.0702711588117
0.0702634020132
0.0702565674584
0.0702496647107
0.0702429063786
0.0702381406864
0.070234942256
0.0702305564988
0.0702252439671
0.0702213949551
0.0702189231927
0.0702162231705
0.0702123653315
0.0702080625689
0.0702047722622
0.0702029767997
0.0702031851813
0.070204324768
0.0702061299909
0.0702093254137
0.0702139986204
0.0702209415377
0.0702298453779
0.0702405587481
0.0702534327137
0.0702684679498
0.0702858192476
0.0703049380958
0.0703258126262
0.0703473415679
0.0703694964671
0.0703915204092
0.0704125886951
0.0704332247835
0.0704516431915
0.0704706047993
0.0704883560113
0.0705073624406
0.0705273546069
0.0705482488124
0.0705704482362
0.0705941019378
0.0706193122303
0.0706457272393
0.070673355643
0.0707009774912
0.0707249147159
0.0707456750986
0.0707664526336
0.070785080283
0.0707987259576
0.0708096485958
0.0708195144324
0.0708284641676
0.0708349175547
0.0708403631871
0.0708430715537
0.0708417327552
0.0708374316823
0.0708279257735
0.0708107766844
0.0707845518255
0.070750060111
0.0707062476536
0.0706567315279
0.0706065216169
0.0705657401253
0.0705322656495
0.0705055824603
0.0704849986012
0.0704712010807
0.0704646582602
0.0704644899141
0.0704668992253
0.0704702658321
0.0704755134638
0.0704825614609
0.0704927974022
0.0705066862804
0.0705246019747
0.0705463859136
0.0705735162072
0.0706011960011
0.0706272065213
0.0706561683702
0.0706866114573
0.0707172253256
0.0707492314559
0.0707828827385
0.0708174646393
0.0708469899906
0.0708684556044
0.0708848025318
0.0709002228848
0.0709107415994
0.0709122412302
0.0709081135952
0.0708983492774
0.0708819259746
0.0708563352559
0.0708175312123
0.0707665167534
0.0706926066509
0.070624129352
0.0705695821454
0.0705347081165
0.0705178775334
0.0705139351735
0.0705141368175
0.0705141793125
0.0705166018723
0.0705220384146
0.0705340774482
0.070557759226
0.070592658355
0.0706416016972
0.0706861289556
0.0707203682909
0.0707422043593
0.0707538372256
0.0707581731543
0.070755951617
0.0707459829511
0.0707317138104
0.0707127786701
0.0706853283314
0.0706511871905
0.070591604272
0.070531090574
0.0704768275816
0.0704357946749
0.0704078137588
0.0703902715603
0.0703783569747
0.0703769902701
0.0703860864555
0.0704041293194
0.0704375327381
0.070467865552
0.0704881599537
0.070497264078
0.0704991250864
0.0704906623279
0.0704758301566
0.070455222742
0.0704257643858
0.0703815427146
0.0703335839283
0.0702839999398
0.0702485057901
0.0702242166429
0.0702064559018
0.0701894389354
0.070182756007
0.0701854878223
0.0701992820456
0.0702184272119
0.0702274712272
0.0702285558908
0.0702197168591
0.0702070129556
0.0701946850416
0.0701819506089
0.0701621293569
0.0701414455379
0.07012562455
0.0701162990475
0.0701118551269
0.0701143872812
0.0701243592916
0.0701408715827
0.0701568613242
0.0701667889346
0.0701728410157
0.070176801724
0.0701782164119
0.070177519914
0.070175886185
0.0701770684892
0.0701827664421
0.0701938985283
0.0701936647775
0.0703975446632
0.0703850383642
0.0703704100385
0.0703559484529
0.0703411411476
0.0703268387339
0.0703132173201
0.0703003123274
0.0702878800714
0.0702762946383
0.0702656191133
0.0702548424048
0.0702448621031
0.0702377741515
0.0702321606239
0.0702251505596
0.0702182528085
0.0702139398095
0.0702108207022
0.0702064952281
0.070201434331
0.0701975142282
0.0701946730304
0.0701928824107
0.070193369006
0.0701957021066
0.0701995754572
0.0702048775439
0.0702117142809
0.0702207361383
0.0702317804996
0.0702443837614
0.0702586404025
0.0702748059795
0.0702937944207
0.0703157970781
0.0703403840243
0.0703658913619
0.070392427047
0.0704187598908
0.0704437920099
0.070469109609
0.0704932962362
0.0705175717296
0.0705404700687
0.0705651233209
0.0705907381106
0.0706173904772
0.0706454756009
0.0706753662834
0.07070708812
0.0707399690524
0.0707739393726
0.0708082026518
0.0708388646209
0.0708652114737
0.0708900066781
0.0709120973505
0.0709291635983
0.0709432115015
0.0709562732016
0.0709680825508
0.0709760366385
0.070983191712
0.0709879372581
0.0709877680772
0.0709830275554
0.0709712676983
0.0709509508715
0.0709204140305
0.0708796286099
0.0708275204237
0.0707675188772
0.0707057093689
0.0706547392076
0.0706131263376
0.0705805360673
0.0705544419366
0.0705341089566
0.0705218164644
0.0705192573183
0.070522916211
0.0705300602803
0.0705399180141
0.0705511314607
0.0705651263808
0.0705819447566
0.0706026031865
0.0706272052136
0.0706568997827
0.0706875872887
0.0707154161395
0.0707470690202
0.0707789598312
0.0708109091288
0.070845812402
0.0708844197094
0.0709270579326
0.0709679003382
0.07100039501
0.0710236040417
0.0710414503759
0.0710527168184
0.0710551779255
0.0710528116201
0.0710451888513
0.0710296850215
0.0710027530158
0.0709587173454
0.0708970277941
0.0708077825134
0.0707218948728
0.0706561229792
0.0706152178001
0.0705944263627
0.0705879064986
0.0705863602952
0.0705852935713
0.0705871036564
0.070593646875
0.0706081254393
0.0706345804351
0.0706725761458
0.0707259052285
0.0707767434037
0.0708174371372
0.0708447322863
0.0708586939816
0.0708628128126
0.0708590874335
0.0708461994608
0.0708295776566
0.0708103633283
0.0707834162314
0.0707479838301
0.0706831597003
0.0706141332127
0.070549584646
0.0704976692512
0.0704585202738
0.0704331311648
0.0704173446035
0.0704162505568
0.0704274777918
0.0704470353402
0.0704806976339
0.0705116216702
0.0705319489889
0.0705406201835
0.0705426639326
0.0705341528528
0.0705182457927
0.0704950945423
0.0704620205207
0.0704137904554
0.0703586853056
0.0703020035264
0.0702604173986
0.0702313081176
0.0702095777094
0.0701897187618
0.0701811101824
0.0701819345309
0.0701913239239
0.0702061471171
0.0702140572517
0.0702159425271
0.070209251063
0.0701993067056
0.0701856179892
0.0701669157584
0.0701381265643
0.0701108476445
0.0700937939545
0.0700870328823
0.0700854153646
0.0700906352364
0.0701034334222
0.0701228531454
0.0701410184226
0.0701521712757
0.07015902362
0.0701644591166
0.0701672133382
0.0701673259122
0.0701657406696
0.0701672909148
0.0701744047087
0.0701883624712
0.070188933302
0.0704336675393
0.0704195794917
0.0704034428212
0.0703870589144
0.0703700408628
0.0703530162531
0.070336165592
0.0703199500169
0.0703043552736
0.0702896332556
0.0702755541576
0.0702616231242
0.0702492178958
0.0702393974272
0.0702294587058
0.070218914982
0.0702106596978
0.0702047559261
0.0701985687522
0.0701913179394
0.0701854930601
0.0701822693832
0.0701801332642
0.0701791105579
0.0701806908526
0.070184780008
0.0701913509924
0.070199365432
0.0702085630172
0.0702193028979
0.0702318906231
0.0702459166984
0.0702617533308
0.0702799067647
0.070302129136
0.0703279009433
0.0703568093898
0.0703868463281
0.070418405655
0.0704501353898
0.0704800247374
0.0705103646773
0.0705408868844
0.0705711313684
0.0706011363917
0.0706330714559
0.0706657762755
0.0706991143729
0.0707330992969
0.0707683410574
0.0708048130421
0.0708415553118
0.0708789029806
0.0709169165703
0.07095243611
0.0709839765594
0.0710127823071
0.0710370903984
0.0710568925996
0.0710730737111
0.0710888381636
0.0711041393478
0.0711162319293
0.0711273452909
0.0711345945895
0.0711346152497
0.0711276874417
0.0711125562857
0.0710888206012
0.0710547914242
0.0710095242926
0.0709518864149
0.0708802393725
0.0708048724083
0.0707405054715
0.0706880191069
0.0706478875545
0.0706178019377
0.0705949587354
0.0705788584879
0.0705726209297
0.0705757363059
0.0705849536491
0.0705978761407
0.070612866542
0.0706307751144
0.0706506539608
0.0706735227175
0.0707000747689
0.0707311523908
0.0707650351065
0.0707972094694
0.0708332749622
0.0708702064
0.0709077656771
0.0709486292333
0.0709947985969
0.0710456253476
0.0710949313062
0.0711363830171
0.0711659561946
0.0711855467934
0.0711953545758
0.0711970607791
0.0711957505224
0.0711898464621
0.0711752148861
0.0711467045949
0.0710972534792
0.0710258688638
0.0709217963793
0.0708198602326
0.0707413656384
0.0706907575894
0.0706628711031
0.0706515670148
0.070647252629
0.0706444788037
0.0706457821387
0.0706535623233
0.0706709701275
0.070702140224
0.0707455152574
0.0708059504333
0.0708644627101
0.0709122641441
0.0709458761074
0.0709639325105
0.0709694736814
0.0709663413681
0.0709545066275
0.0709389035135
0.0709198739668
0.0708908163746
0.0708495233081
0.0707739252277
0.0706914926434
0.0706126830013
0.0705504296447
0.0705025800303
0.0704694636348
0.070448888734
0.070446755151
0.0704583833074
0.0704775766383
0.0705116470459
0.0705458200306
0.0705708030762
0.0705830733628
0.0705875208138
0.070579949268
0.070563491708
0.0705391283155
0.0705041065492
0.0704523701764
0.0703887293156
0.0703234781401
0.0702735886314
0.0702362116848
0.0702084589399
0.0701832698184
0.07017028297
0.07016848538
0.0701761935982
0.0701911729832
0.070199701926
0.0702031722904
0.0701985464377
0.0701904476891
0.0701750763493
0.0701497407714
0.0701135114233
0.0700830501304
0.0700652856541
0.0700606589857
0.0700618609104
0.070069095304
0.0700831282903
0.0701044811975
0.0701251267305
0.0701381679879
0.0701464192833
0.0701536526416
0.0701574924751
0.070158144817
0.0701565766173
0.0701584756673
0.0701667598959
0.0701830903728
0.0701848378351
0.0704669861271
0.0704515097436
0.0704340505088
0.0704163514131
0.0703978979429
0.0703789793658
0.0703597580878
0.0703411930516
0.070323316977
0.070306058151
0.0702890062768
0.070272216501
0.0702569462719
0.0702432052952
0.0702291240271
0.0702157821449
0.0702056102146
0.070196616952
0.0701865711222
0.0701780361179
0.070172673445
0.0701695354168
0.0701675596242
0.0701676575731
0.0701705029081
0.0701765215673
0.0701854265859
0.0701961120224
0.0702073836546
0.070219366127
0.0702330563312
0.0702486154792
0.0702671815069
0.0702883084331
0.0703138099905
0.0703427549181
0.0703751877314
0.0704092852204
0.0704449668423
0.0704811058653
0.0705159804486
0.07055090378
0.070586345861
0.0706219072959
0.0706584018231
0.0706973001287
0.0707371514059
0.0707774869806
0.0708184266042
0.0708600066858
0.0709014502865
0.0709428606426
0.0709847771036
0.0710270146593
0.0710671015561
0.0711038673701
0.0711368563426
0.0711651981018
0.0711904645685
0.071211358891
0.0712309423884
0.0712501235748
0.0712666573744
0.0712809931629
0.0712878280526
0.0712846638939
0.0712720264657
0.0712497531815
0.0712192510987
0.0711808059122
0.0711323922401
0.0710707727487
0.0709910328397
0.0709021483332
0.0708221762186
0.0707563019406
0.0707063120775
0.0706728652606
0.0706523314597
0.070638547094
0.070631364889
0.0706324794091
0.0706397701372
0.0706516775091
0.0706679505397
0.0706879798848
0.0707101292009
0.0707346122405
0.0707623031236
0.0707946905006
0.0708325283292
0.0708714271335
0.0709147132431
0.0709592814915
0.0710052737339
0.0710549791098
0.0711099312823
0.071166985572
0.0712216038537
0.0712699521633
0.071305189038
0.0713264675827
0.0713345095647
0.0713357031051
0.0713368125597
0.0713323699469
0.0713167262888
0.0712839424432
0.071226639065
0.071144698185
0.0710276336867
0.0709116015528
0.0708232998897
0.0707652174077
0.0707301343236
0.070712884744
0.0707062226737
0.0707032423074
0.0707066827081
0.0707174062999
0.0707384673137
0.070774136034
0.0708211083987
0.0708862258919
0.0709517243539
0.0710050516229
0.0710430301861
0.0710649682459
0.0710732906718
0.0710730987572
0.0710656885818
0.071055079263
0.0710363801417
0.0710004886033
0.0709450722704
0.0708515829391
0.0707509221401
0.0706565335341
0.0705876406527
0.0705384446783
0.0705045167207
0.0704808371229
0.0704764817083
0.0704867270466
0.0705039096509
0.0705392087275
0.0705777614798
0.0706097469714
0.0706273804567
0.0706352740915
0.0706287719288
0.0706115072913
0.0705854977972
0.0705481324195
0.0704925339854
0.0704203249484
0.0703437303903
0.070282191202
0.0702352369663
0.0702007446304
0.0701708066632
0.0701566873528
0.07015560328
0.070164208857
0.070180982811
0.0701910877443
0.0701961382019
0.0701920660865
0.0701827756607
0.0701638387712
0.0701337292176
0.0700950066568
0.0700628272104
0.0700436145371
0.070038819171
0.0700407106773
0.0700484136703
0.0700624365628
0.0700845977433
0.0701081588181
0.0701240886277
0.0701347917913
0.0701442120101
0.0701490732646
0.0701499950125
0.0701484557711
0.070150640083
0.070160031347
0.0701785958056
0.070181674495
0.0705012203533
0.0704842836828
0.0704656430287
0.0704470123852
0.0704276982732
0.0704079968204
0.070387358635
0.0703668072327
0.070346537406
0.0703264602176
0.0703062412734
0.0702862906234
0.0702673227035
0.070248919403
0.070230673287
0.0702144848253
0.0702012453662
0.0701879661342
0.0701746728268
0.0701655788988
0.0701598930553
0.0701557370007
0.0701533722992
0.0701540723449
0.070158120165
0.0701656091717
0.0701760663921
0.0701881243556
0.0702008486003
0.0702145932583
0.0702301310422
0.0702483292519
0.0702699744983
0.0702943606853
0.0703222577498
0.0703532733651
0.0703878713113
0.0704250818282
0.0704647902962
0.0705057221613
0.0705469782175
0.0705892979632
0.070631762005
0.0706732315099
0.070715935293
0.0707604928529
0.0708056115154
0.0708515364242
0.0708988477886
0.0709472852558
0.070996700563
0.071047802975
0.0711000148343
0.0711514503076
0.0711980132085
0.0712385531641
0.0712725308941
0.0713009605791
0.0713269709872
0.0713507351472
0.0713731908921
0.0713921848663
0.0714079139656
0.0714210066352
0.0714253069565
0.0714199228197
0.0714052923105
0.0713793737648
0.0713427967148
0.071297321219
0.0712426660459
0.0711752842576
0.0710894252438
0.0709908022545
0.0708992525255
0.070821419155
0.0707612398052
0.0707223308726
0.0707024584538
0.0706920934822
0.0706861975691
0.0706852090707
0.0706874096659
0.0706948907287
0.0707102987372
0.0707317004802
0.0707571529569
0.070785417497
0.0708161030103
0.0708511320234
0.0708928564878
0.0709387239164
0.0709919272342
0.0710484908168
0.0711079736008
0.0711697470861
0.0712324939258
0.0712927719052
0.0713487910776
0.0713996878109
0.0714381621581
0.0714608511878
0.0714682669295
0.071469785847
0.0714714919104
0.0714660300156
0.0714482684364
0.0714121086827
0.0713486694453
0.0712578966495
0.0711302945025
0.0710018121635
0.07090349264
0.0708371318147
0.0707936522214
0.0707690181127
0.0707593813854
0.0707567448872
0.0707647681316
0.0707817992492
0.0708085485394
0.0708477971868
0.0708968768192
0.0709653737294
0.0710376952029
0.0710988542224
0.0711425258295
0.0711684392682
0.0711796935328
0.0711815574839
0.0711763357917
0.071167408604
0.0711463014217
0.0711017106429
0.0710320721577
0.0709218305558
0.0708022385961
0.0706914729445
0.0706158783366
0.0705670324731
0.0705362917093
0.0705130097886
0.0705059909984
0.0705134836669
0.0705278156473
0.070564737939
0.0706085691986
0.0706490154311
0.0706735885191
0.0706859820183
0.0706814749575
0.0706623705121
0.070631223009
0.07058816009
0.0705268754206
0.0704477364356
0.0703592297385
0.0702867708318
0.0702316668712
0.070191349639
0.0701586145273
0.0701437714266
0.0701439672035
0.0701551703464
0.0701748751752
0.070187944282
0.0701944680451
0.070189948203
0.0701774875801
0.0701550385579
0.0701224964412
0.0700831449699
0.0700498526481
0.0700282867954
0.0700214965097
0.0700222363362
0.0700285475121
0.0700414548392
0.0700637973308
0.0700907265714
0.0701107733031
0.0701248889948
0.0701366558597
0.0701423827871
0.0701434222117
0.0701419465893
0.0701441828623
0.0701546309401
0.0701750899426
0.070179823293
0.0705422539608
0.0705231835083
0.0705029097441
0.0704831778407
0.0704625215497
0.0704408660329
0.0704181904559
0.07039522902
0.0703719729312
0.0703485847665
0.0703250468573
0.0703018986957
0.0702791493897
0.0702564369773
0.0702347029451
0.070215692624
0.0701985626896
0.0701814009505
0.0701666661363
0.0701566014083
0.0701489973591
0.070143184432
0.070140182868
0.0701408863004
0.0701450823796
0.0701530023543
0.0701642854946
0.0701777174668
0.0701921633137
0.0702082029877
0.0702262763702
0.0702471672637
0.0702712098311
0.0702983053699
0.0703284189425
0.0703613516897
0.0703980955111
0.0704382261901
0.0704819843998
0.0705279169635
0.0705752809072
0.0706247608261
0.0706754412149
0.0707249825161
0.0707750037608
0.0708254138655
0.0708752690994
0.0709256344816
0.0709774878417
0.0710318018246
0.0710895552893
0.0711487728202
0.0712075208887
0.0712645787874
0.0713167756098
0.0713636288618
0.0714021369342
0.071431320801
0.0714565147764
0.071480233952
0.0715014246478
0.0715163531927
0.0715273937159
0.0715351790604
0.0715353711168
0.0715293545312
0.071517237647
0.071494050403
0.0714566953936
0.0714053284878
0.071341569241
0.0712657787807
0.0711734809507
0.0710697467384
0.0709721317439
0.0708870248361
0.0708191139999
0.0707721513131
0.0707461216853
0.0707337344934
0.0707277555536
0.0707257193213
0.0707252416363
0.0707297500046
0.0707434470835
0.0707659601722
0.0707957752756
0.0708300850148
0.070866680628
0.0709061353932
0.0709515270936
0.0710030091216
0.0710649895442
0.0711332955851
0.0712053152164
0.0712782054577
0.0713497607745
0.0714146815125
0.0714724651947
0.0715247245868
0.0715653905526
0.071589169115
0.0715954692403
0.0715972497735
0.0715983561067
0.0715913054291
0.0715720624569
0.0715332757079
0.0714651704931
0.0713671947952
0.0712304338377
0.0710900199023
0.0709809942952
0.0709058965956
0.0708551061804
0.0708235865565
0.0708088983694
0.0708043545827
0.0708134349786
0.0708336429714
0.070864999132
0.0709078121393
0.0709593336583
0.0710321944809
0.0711135871522
0.0711861330591
0.0712395337737
0.0712727322394
0.071287954942
0.0712901695345
0.0712815987859
0.0712661741974
0.0712389112199
0.0711884248831
0.0711114126405
0.0709892928475
0.0708530264619
0.0707271684271
0.0706429381079
0.0705928640896
0.0705646413081
0.0705419701811
0.0705319721421
0.0705370623897
0.0705497454848
0.0705896151114
0.0706401169755
0.0706896462081
0.0707212616002
0.0707371962759
0.0707324372614
0.0707078636806
0.0706691688124
0.0706202773147
0.07055427462
0.0704694537087
0.070371531466
0.0702900664787
0.0702283303617
0.0701835643297
0.0701483172962
0.0701323610064
0.0701334688152
0.0701485619425
0.0701709600607
0.0701888204822
0.0701973729694
0.0701913280019
0.0701738320828
0.0701471422964
0.0701141812432
0.0700754485382
0.0700421348147
0.0700181649811
0.070007943051
0.0700059178794
0.0700096818921
0.0700207595927
0.0700440593082
0.0700747904842
0.0700988690491
0.0701167288972
0.0701308915979
0.0701376276914
0.0701389490917
0.0701374215191
0.0701391409994
0.0701501302892
0.0701721178189
0.0701787145615
0.0705900375795
0.0705665301717
0.070541098177
0.0705174061746
0.0704941056341
0.0704701933849
0.0704456185165
0.0704206121948
0.0703949899654
0.0703689282177
0.0703427437306
0.0703169884913
0.070291375038
0.0702660762361
0.0702424150992
0.0702208071435
0.070200276588
0.0701811480065
0.0701662802212
0.0701551255183
0.0701455585375
0.0701387649355
0.0701353954633
0.0701356192426
0.070139414564
0.0701474005065
0.0701593615481
0.0701741543675
0.0701904201688
0.0702083077836
0.0702282484718
0.0702506939877
0.070276404665
0.0703049631501
0.0703365075833
0.0703711351498
0.0704101110138
0.0704534593586
0.0705010198755
0.0705512756781
0.0706036182982
0.0706585034183
0.0707150156342
0.0707713768512
0.0708286484374
0.070886635509
0.0709448675639
0.0710038242454
0.0710638830325
0.0711253937414
0.0711882344205
0.0712506869449
0.0713106477268
0.0713666576323
0.0714183630269
0.0714676717356
0.0715108763483
0.0715445525095
0.0715731879327
0.0715987127603
0.0716192882747
0.071630443244
0.0716362357191
0.0716384651496
0.0716329513082
0.0716240658578
0.0716133145783
0.0715935908061
0.0715581147476
0.0715031042609
0.071429646665
0.0713418093215
0.0712409393918
0.0711340514641
0.0710360022397
0.0709503866456
0.0708786314405
0.0708233981775
0.0707862288624
0.07076550503
0.0707569721168
0.0707554280723
0.0707563763192
0.0707621702233
0.0707757185177
0.0707984129975
0.0708309096577
0.070869916747
0.070913217519
0.0709593874817
0.0710091286176
0.0710635069626
0.0711287578552
0.07120251535
0.0712818364852
0.0713659752008
0.0714502328851
0.0715251922175
0.0715901614944
0.0716459456939
0.0716864248014
0.0717072914044
0.0717107126969
0.071713332308
0.0717152001119
0.0717096902263
0.0716916317439
0.0716500243228
0.0715756115813
0.071467435403
0.0713179490441
0.0711634583865
0.071043619773
0.0709615131592
0.070907839968
0.0708749225424
0.0708574447954
0.0708493033479
0.0708538706472
0.0708707794934
0.0709026540348
0.0709487394745
0.0710046216252
0.0710841029725
0.0711757596703
0.0712604306508
0.0713245740209
0.0713661591533
0.0713863061561
0.0713892383407
0.0713747879813
0.0713492541405
0.0713146971967
0.0712612252514
0.0711831320221