/*--------------------------------*- C++ -*----------------------------------*\
  =========                 |
  \\      /  F ield         | OpenFOAM: The Open Source CFD Toolbox
   \\    /   O peration     | Website:  https://openfoam.org
    \\  /    A nd           | Version:  8
     \\/     M anipulation  |
\*---------------------------------------------------------------------------*/
FoamFile
{
    version     2.0;
    format      ascii;
    class       volScalarField;
    location    "0.000664";
    object      T;
}
// * * * * * * * * * * * * * * * * * * * * * * * * * * * * * * * * * * * * * //

dimensions      [0 0 0 1 0 0 0];

internalField   nonuniform List<scalar> 
22800
(
350.005848935
350.022915847
350.044421431
350.07641998
350.110366153
350.139566272
350.164119341
350.18586267
350.207232284
350.229894234
350.254588647
350.281429403
350.308992197
350.337065133
350.361175362
350.381143176
350.398912307
350.41658521
350.434569223
350.451586985
350.465543472
350.476357427
350.483483855
350.486164616
350.4857325
350.483137464
350.477967608
350.47014496
350.459856279
350.446979956
350.430305657
350.408878463
350.383380207
350.353759107
350.320070139
350.282065873
350.241349266
350.197605485
350.15473569
350.114548925
350.074254161
350.034157428
349.992537523
349.954630185
349.910982668
349.864409366
349.812817328
349.756871354
349.69785184
349.638971299
349.581192267
349.522818397
349.464574454
349.408336609
349.356620171
349.314538198
349.283887366
349.260571722
349.24182475
349.228853311
349.223295229
349.223405766
349.230650586
349.248811536
349.276721186
349.315710728
349.369306679
349.440154583
349.530707758
349.6429301
349.778428147
349.938817199
350.127955175
350.320431007
350.492328171
350.632972523
350.740587603
350.817389095
350.86570502
350.889753867
350.897329657
350.895119171
350.885640746
350.869195367
350.844362313
350.80888289
350.762440887
350.701913335
350.623296408
350.533199952
350.435184922
350.335071035
350.241158641
350.142035165
350.03585426
349.917039793
349.781092393
349.639728252
349.519823614
349.430065375
349.371266188
349.33842193
349.323687113
349.322615331
349.329965636
349.355495954
349.413107909
349.516029254
349.675934935
349.908551207
350.19048706
350.473928254
350.67211888
350.796784434
350.867372319
350.902857058
350.915867388
350.913527353
350.896170129
350.850095468
350.762946293
350.629566858
350.448235684
350.23312667
350.00671478
349.824915466
349.692107791
349.606209519
349.560126354
349.542390511
349.542312624
349.554396723
349.592043073
349.67013054
349.809280017
349.998695192
350.228030643
350.401553449
350.508280793
350.561856992
350.578109952
350.569898291
350.538098064
350.468941458
350.345485546
350.170435877
349.965796245
349.800656896
349.695663311
349.638071197
349.613558315
349.613802137
349.633644787
349.688301269
349.790604833
349.938263555
350.091038435
350.1830496
350.224454148
350.232878043
350.219100367
350.181730837
350.113629457
350.007805528
349.886018592
349.790265422
349.733678444
349.70080019
349.688754269
349.700793665
349.741011381
349.80764624
349.880867821
349.924807459
349.941707752
349.940669173
349.926970311
349.892785065
349.843212325
349.798978978
349.778509138
349.774687504
349.780793646
349.796623419
349.82539121
349.863089188
349.891653737
349.906397542
349.913758147
349.90952735
350.01135929
350.040318087
350.074473616
350.118449944
350.162505242
350.199906917
350.232399826
350.262764642
350.292443361
350.322293751
350.353636095
350.387112605
350.42147789
350.455400112
350.485845965
350.511252449
350.533806352
350.555815509
350.577668172
350.598291434
350.615817354
350.629716385
350.639777185
350.646087366
350.648632436
350.647672459
350.644256354
350.638258419
350.630018791
350.619607208
350.605698522
350.587038663
350.563777733
350.535729728
350.503184733
350.466019984
350.426241393
350.383639272
350.341541255
350.302264203
350.263264085
350.224170026
350.182909839
350.14462409
350.09970798
350.050927768
349.997464257
349.938696346
349.875584061
349.810463166
349.74513878
349.679622854
349.613138917
349.54767004
349.486321338
349.43509094
349.398084354
349.370859111
349.349551113
349.334543411
349.326678052
349.326214881
349.331071012
349.347253768
349.376002929
349.416016792
349.470608126
349.54292322
349.636240653
349.752522023
349.893370987
350.059391706
350.253325479
350.453268623
350.626036523
350.763077609
350.870241357
350.948093826
350.99918703
351.026531687
351.036235141
351.035294332
351.027269196
351.010253677
350.981025802
350.938144612
350.882323029
350.813295953
350.731929766
350.641782002
350.543816745
350.443427663
350.348534258
350.250864099
350.146907418
350.031931175
349.900515271
349.760095846
349.633841911
349.536351924
349.472520011
349.440146765
349.427883615
349.426145839
349.429897682
349.451464789
349.506111595
349.608365309
349.770392171
350.009157134
350.296040752
350.582238205
350.779953762
350.904077503
350.974214779
351.011237655
351.027825622
351.023518426
350.996260456
350.937854739
350.840071859
350.700418461
350.514647789
350.29671751
350.068033197
349.883827665
349.748725389
349.662268598
349.617558321
349.601052434
349.600125216
349.60946831
349.644517463
349.719828653
349.857032205
350.044196913
350.27356547
350.445553839
350.548760105
350.598879666
350.61324592
350.60188929
350.564263294
350.490366735
350.362486711
350.183211547
349.97206034
349.803336666
349.69741326
349.639682814
349.613388944
349.613239693
349.630966617
349.681043177
349.777527414
349.924515692
350.07325899
350.16260828
350.2029997
350.212337388
350.196354199
350.152829082
350.082358295
349.978953021
349.859317136
349.765464584
349.707473252
349.667942527
349.655082559
349.670926566
349.716287062
349.786477612
349.861354645
349.905102241
349.920218498
349.915426293
349.896287375
349.85964147
349.811819154
349.773124986
349.756262274
349.754462027
349.761631074
349.77962763
349.810795668
349.851157274
349.882226802
349.90024443
349.91087915
349.907650915
350.024093323
350.077815047
350.137476131
350.205888948
350.271785243
350.329258108
350.38140601
350.431189601
350.47954887
350.527398461
350.575743897
350.6226258
350.666922218
350.709322818
350.74854174
350.782012567
350.811716853
350.840614487
350.869188883
350.895776149
350.918631735
350.9369944
350.951340655
350.96182857
350.967628676
350.967923631
350.965210489
350.959768511
350.95190504
350.94240532
350.929717488
350.912289215
350.889917513
350.862227848
350.829361364
350.790450808
350.747274727
350.700058022
350.652760707
350.607887601
350.564236844
350.521216236
350.475456233
350.4326786
350.384076781
350.331571737
350.273554644
350.209523299
350.140994559
350.069965885
349.997695741
349.923642691
349.846577381
349.768653786
349.693332845
349.628202131
349.580359846
349.544567918
349.515452784
349.493519829
349.480018309
349.475991964
349.477203844
349.488522482
349.51527487
349.557189953
349.618580929
349.70104233
349.807540642
349.93893354
350.098892177
350.29016074
350.514147956
350.736785267
350.92506389
351.074384589
351.189259944
351.272172313
351.327336067
351.35856507
351.371079317
351.371113608
351.362816096
351.341932395
351.305539553
351.253411882
351.186916162
351.106798381
351.015006805
350.916590876
350.811720727
350.707758282
350.609409195
350.510961847
350.406759763
350.291949285
350.160255059
350.015581871
349.876557126
349.764101091
349.68575642
349.64312748
349.62367644
349.61550548
349.616229975
349.63424815
349.68849694
349.795946241
349.968501749
350.221737671
350.525743663
350.828191385
351.036654142
351.168585841
351.244397209
351.284173192
351.294842515
351.280194283
351.23963482
351.164212094
351.048704396
350.894127262
350.698366886
350.47819226
350.246477681
350.056590358
349.91295647
349.817090091
349.764478094
349.741674562
349.734527011
349.741292278
349.773344681
349.846222955
349.984885377
350.175718166
350.413040775
350.589846189
350.689852989
350.732305531
350.739333039
350.720253482
350.670683494
350.58523382
350.445936087
350.258104363
350.035303271
349.856409876
349.740506288
349.672715544
349.633389168
349.628504739
349.64439687
349.690334047
349.779002295
349.929127194
350.077327799
350.165282631
350.203202082
350.211095381
350.190474239
350.137692142
350.056556148
349.945086596
349.818742076
349.718290861
349.653501477
349.603989348
349.590385602
349.608608007
349.658019743
349.730985788
349.807592281
349.849509831
349.86068732
349.854159003
349.835841993
349.803667566
349.758795487
349.720000243
349.703965401
349.703271514
349.712868791
349.735711588
349.772902512
349.819925606
349.858841352
349.886221242
349.905133869
349.903669374
350.037417006
350.118158602
350.202524867
350.292044574
350.378506077
350.458191379
350.533867099
350.607490645
350.679535936
350.750903668
350.82171707
350.888372834
350.949835313
351.008630329
351.063534164
351.110444889
351.152035718
351.192247424
351.231143315
351.266052172
351.296117279
351.321249123
351.341719751
351.356979801
351.366318058
351.368278229
351.366077375
351.361226463
351.353435441
351.344155003
351.331934784
351.315000143
351.29239826
351.262932719
351.226412162
351.182213843
351.131631929
351.074972604
351.017351116
350.961822309
350.906502873
350.852173316
350.794691384
350.73647598
350.673207439
350.606583587
350.534985272
350.458228784
350.378320565
350.296558614
350.213093423
350.126157914
350.036885942
349.949005477
349.861863041
349.782068818
349.719748239
349.671911063
349.631610263
349.600786299
349.580426905
349.570053864
349.565597326
349.571810139
349.595974255
349.64150965
349.71107743
349.805702275
349.927791285
350.080116244
350.26971683
350.500355821
350.775153699
351.052766226
351.285387154
351.468966615
351.607722866
351.704518573
351.765484432
351.800916823
351.818341306
351.820059728
351.81123772
351.788325099
351.746031704
351.685090209
351.60709475
351.514499679
351.409391996
351.297317383
351.179210599
351.066021505
350.960352619
350.852839055
350.737014439
350.610288818
350.467279675
350.310591176
350.155436273
350.021219141
349.918089115
349.854868597
349.821264363
349.803921383
349.802233345
349.819378746
349.876749542
349.99407824
350.183939982
350.465065731
350.805814338
351.151444997
351.388844567
351.539141406
351.624612329
351.665805182
351.673039885
351.652949034
351.598791546
351.503162374
351.3674944
351.196399377
350.986589964
350.75373625
350.509290927
350.305198898
350.143800657
350.027291114
349.954573575
349.910413358
349.882648969
349.882056013
349.909840384
349.988259625
350.145161695
350.356787339
350.617089929
350.809209169
350.912512484
350.949103205
350.948203837
350.921353355
350.860739452
350.762667036
350.607559248
350.402502154
350.159797748
349.960995454
349.825196771
349.736992026
349.67975693
349.665640169
349.67656666
349.71761358
349.800159387
349.95320515
350.110920596
350.206092496
350.247334552
350.254073655
350.227168282
350.161507769
350.061783116
349.932012011
349.78675881
349.66705548
349.588918699
349.537796093
349.530065417
349.548506528
349.596797089
349.667847014
349.744381298
349.786969495
349.804156398
349.804625863
349.793538673
349.765968069
349.719502619
349.672787254
349.651520602
349.649041263
349.660300137
349.688380594
349.733910574
349.789397332
349.837203926
349.873479785
349.900851196
349.901704118
350.050009008
350.154056767
350.255304007
350.360036389
350.463547192
350.564176444
350.661911816
350.75789459
350.852454194
350.94620167
351.038207238
351.125114816
351.207592685
351.28897105
351.366023894
351.433493327
351.495901296
351.556866981
351.613902063
351.663219249
351.706747504
351.745604099
351.778212869
351.802870135
351.820056148
351.827593632
351.828399587
351.82597917
351.819580316
351.809912127
351.79567905
351.774573826
351.744773774
351.705201173
351.656847034
351.600165559
351.535609919
351.462448295
351.386526956
351.311947362
351.23649764
351.16236449
351.085893362
351.006666579
350.922083709
350.835246257
350.74446666
350.649680665
350.551884522
350.451958654
350.348849586
350.24019664
350.131137533
350.029691697
349.934511689
349.846799133
349.774680148
349.717133048
349.668827937
349.631708749
349.608319505
349.597379861
349.591625609
349.597130697
349.622098015
349.671106019
349.744791335
349.846121256
349.980938419
350.157340992
350.378685773
350.648627927
350.975539982
351.32099334
351.617132706
351.85298649
352.033707159
352.159154182
352.233466226
352.272739761
352.294607984
352.301880573
352.296663036
352.277362973
352.233971537
352.166666468
352.077503563
351.971501643
351.851218309
351.721678323
351.584214238
351.446328298
351.31842813
351.184940078
351.040829283
350.886919562
350.719262846
350.540755443
350.368297727
350.216423656
350.089021039
349.998995582
349.946159756
349.921722077
349.920519058
349.941431331
350.008058561
350.141787971
350.356571577
350.67300327
351.067527683
351.477388946
351.765599052
351.95036386
352.053945596
352.099700981
352.104910953
352.080611659
352.016423918
351.90715005
351.754064327
351.561920025
351.329104403
351.069174851
350.793675787
350.559726139
350.369322524
350.222887279
350.120709905
350.048096169
350.000741322
349.995277767
350.025142377
350.116613887
350.299935713
350.547911542
350.852031075
351.074406526
351.186285203
351.217739274
351.210434752
351.17585711
351.107673994
350.999266276
350.825794151
350.594186574
350.316556956
350.077454311
349.907401528
349.791045217
349.714708455
349.692719518
349.702150747
349.745339211
349.835977841
350.000122714
350.177628286
350.285755643
350.332042853
350.33997217
350.307123762
350.226402427
350.102574199
349.945083378
349.774310399
349.629307922
349.532351728
349.479316989
349.477825522
349.496225966
349.539634497
349.603106047
349.680015715
349.73397875
349.7672808
349.777784084
349.772456178
349.745638191
349.693565214
349.636120604
349.606762529
349.601015728
349.613498726
349.645942197
349.699367675
349.763396187
349.820605047
349.865299508
349.899726491
349.902001102
350.05970059
350.181829977
350.29663625
350.413840651
350.532486762
350.652361784
350.769970216
350.88517673
350.998337964
351.110181904
351.219767315
351.325135676
351.428085405
351.52986226
351.625253297
351.71338113
351.798618203
351.880546592
351.954227886
352.019138998
352.078652258
352.13368549
352.180038416
352.217486886
352.247121281
352.264483039
352.271737621
352.272146687
352.268734628
352.259819088
352.243915998
352.218258199
352.181751885
352.133392114
352.075211829
352.00583403
351.925699511
351.833694511
351.735183427
351.634552889
351.532964058
351.433857149
351.334480532
351.232612164
351.126784501
351.018908307
350.906602542
350.789790944
350.66874036
350.544319252
350.415023919
350.282148312
350.15210583
350.03183483
349.922621194
349.824401538
349.742065236
349.672773399
349.615612001
349.570864396
349.544189661
349.535211888
349.533793956
349.543464186
349.575212555
349.631993653
349.713313683
349.827000145
349.981860873
350.186644247
350.447884905
350.767267687
351.142689327
351.54377974
351.895645362
352.182477106
352.409556389
352.575149019
352.678953336
352.73196176
352.759345561
352.773225983
352.771694016
352.756310624
352.716056497
352.647509962
352.549852695
352.429138714
352.289847683
352.136578469
351.972668304
351.799939129
351.633661122
351.462683766
351.283050725
351.09414428
350.893525676
350.684413772
350.487754378
350.316717048
350.171844481
350.063788224
349.995042814
349.962798802
349.961852735
349.987616951
350.065248804
350.217550996
350.461687631
350.822603915
351.278271709
351.762920317
352.113415304
352.340105201
352.466124218
352.519216345
352.525502774
352.500179986
352.431783445
352.314597581
352.147362038
351.934246117
351.671115433
351.371113267
351.044464465
350.760710675
350.530129361
350.352116036
350.224379651
350.134826393
350.083884426
350.083517592
350.119593619
350.219454254
350.417131893
350.697820154
351.05431678
351.320708236
351.454682352
351.492741422
351.484618525
351.444052379
351.367365465
351.247019257
351.050477808
350.783297855
350.457268565
350.168506469
349.960572317
349.818390909
349.727075381
349.700002999
349.710560841
349.759109123
349.865830136
350.053978546
350.264772918
350.393679778
350.445023298
350.452106267
350.413045953
350.31623177
350.168005388
349.980511854
349.780238612
349.606746643
349.48849451
349.429483672
349.429212767
349.446191019
349.484847661
349.546246265
349.633136232
349.703868671
349.750674919
349.769253463
349.766730635
349.737002323
349.675952715
349.606259141
349.569392275
349.560819133
349.573854104
349.609210267
349.66880289
349.740859305
349.807504536
349.860153432
349.90009733
349.903761923
350.067826758
350.205340813
350.333564298
350.464145365
350.596763335
350.732950608
350.869187422
351.002183281
351.13229058
351.260230203
351.38553848
351.507731336
351.628271539
351.746272033
351.857378679
351.96325829
352.066821589
352.163693179
352.249581807
352.329111952
352.403947306
352.471071698
352.52776769
352.576580544
352.616542849
352.642750423
352.656163561
352.660241683
352.658164553
352.649768282
352.633368454
352.606204991
352.567632211
352.514453652
352.448585874
352.367620801
352.272679337
352.162917405
352.042576088
351.91611217
351.787018128
351.659462352
351.5327104
351.403871497
351.273130331
351.142122121
351.00648491
350.866096426
350.722082558
350.57495019
350.424640925
350.271888669
350.120636206
349.97718213
349.844537747
349.72704468
349.626713586
349.543150458
349.478287283
349.428995095
349.401741398
349.395442361
349.398920412
349.41853018
349.462090089
349.528790174
349.623270603
349.757687492
349.94346002
350.187259044
350.494538295
350.866505487
351.296676858
351.748397067
352.143521953
352.46811889
352.730657514
352.935583069
353.079875135
353.163775279
353.204862494
353.22192132
353.219232391
353.20181636
353.163052093
353.094722662
352.991521997
352.857071517
352.697350914
352.51845478
352.326542584
352.121524168
351.91691228
351.706184471
351.486408915
351.256123359
351.012018511
350.763086163
350.539368951
350.351693121
350.198920623
350.083217228
350.00492707
349.967201212
349.968182862
349.999683607
350.084590677
350.251471156
350.522348373
350.9271781
351.446264188
352.003847228
352.418223013
352.690033295
352.838470365
352.898654301
352.908492292
352.886473363
352.824073212
352.707199435
352.529761985
352.295107578
351.994778213
351.643793477
351.256968819
350.913313051
350.635387485
350.423563732
350.274583956
350.179761801
350.13533834
350.14432146
350.188714354
350.29054893
350.488401637
350.785845808
351.182885614
351.494888656
351.665658129
351.729406683
351.735444365
351.697609249
351.611125333
351.473279896
351.249372723
350.944882544
350.56945647
350.235494817
349.995157735
349.831791202
349.728076747
349.694769429
349.704298245
349.755463416
349.872718995
350.08483396
350.331775918
350.484095994
350.542449861
350.549210621
350.510474394
350.409507538
350.247752066
350.036338164
349.803000335
349.595624316
349.45430407
349.384833661
349.381153535
349.39380289
349.430699325
349.49947743
349.599669451
349.685643548
349.740598559
349.762551093
349.760434448
349.726456592
349.654784014
349.572933645
349.53037527
349.520881529
349.535131758
349.573498614
349.63866471
349.7184627
349.794367824
349.855408708
349.90135505
349.905827007
350.077081273
350.230734429
350.373369486
350.518242916
350.665018169
350.816075696
350.968002596
351.116944478
351.262027454
351.404331947
351.543885406
351.681150652
351.816355507
351.947308453
352.071911543
352.192783214
352.309964094
352.416283845
352.512057
352.604279393
352.690255842
352.764878657
352.829479581
352.887694342
352.935584733
352.967946201
352.985414825
352.990588123
352.988398543
352.980191457
352.963714714
352.937018758
352.897777566
352.84188681
352.768992321
352.677477502
352.568999255
352.444274076
352.307585518
352.162026435
352.012410151
351.864711274
351.716294546
351.563191412
351.407591192
351.250497812
351.087384383
350.919265681
350.748585957
350.575127615
350.399714603
350.221256123
350.043078619
349.875538176
349.721008301
349.584216706
349.467180786
349.371269483
349.300455139
349.254107519
349.232921918
349.226594107
349.230408131
349.259293039
349.319208239
349.404664616
349.524362623
349.687951673
349.90512697
350.18418227
350.529449412
350.945299933
351.427409763
351.930310901
352.369335721
352.72855567
353.02130234
353.258241824
353.439005414
353.556373513
353.616548212
353.636753577
353.630381175
353.607124187
353.565746759
353.496916304
353.393177978
353.252843618
353.078911991
352.878871909
352.661129439
352.426589026
352.187781942
351.94184861
351.685940486
351.41136058
351.115127359
350.82168307
350.564442851
350.35852117
350.196273952
350.073103452
349.987892364
349.94665447
349.947052323
349.982617106
350.077851187
350.263656087
350.566029568
351.017938342
351.602899495
352.231569794
352.702716206
353.012336034
353.179375569
353.244306502
353.256019326
353.237382027
353.186659983
353.077594782
352.895024169
352.638034293
352.299490225
351.896853431
351.449267759
351.048958555
350.728331098
350.484920021
350.315983945
350.214262026
350.168926911
350.175555283
350.219211161
350.323341849
350.529173954
350.846897509
351.278716851
351.62896183
351.833179561
351.926234871
351.954355973
351.925201196
351.833591243
351.676250416
351.424663733
351.08765597
350.669007373
350.292067306
350.022809734
349.842895013
349.728192316
349.683220623
349.687271592
349.737155749
349.860162476
350.089852463
350.36506192
350.541432012
350.609408508
350.620816367
350.585202928
350.483528885
350.31361437
350.08631784
349.825492424
349.5878068
349.426080796
349.340829199
349.327960183
349.33786484
349.376493841
349.45524794
349.570277643
349.670501425
349.730940409
349.752912641
349.748944233
349.710188292
349.628319138
349.53559198
349.488711043
349.48005171
349.49607518
349.53742416
349.607794555
349.695579913
349.780845573
349.850934994
349.902643577
349.907395653
350.090264607
350.265491336
350.42670159
350.586792966
350.745782453
350.906030154
351.066438735
351.226294536
351.383463183
351.538910224
351.692363307
351.844222728
351.99320675
352.136617154
352.274348791
352.408085061
352.535093626
352.650103864
352.757323459
352.860535287
352.953262295
353.032964174
353.103661604
353.168147868
353.220523116
353.256206189
353.275698425
353.281884193
353.279993249
353.272767699
353.257230082
353.230870792
353.190289459
353.131667698
353.052753657
352.952347531
352.833266217
352.69700992
352.548112884
352.388889161
352.223716438
352.057792179
351.891126491
351.719084342
351.541423712
351.358718655
351.16890681
350.97261211
350.772299242
350.56891813
350.359081858
350.142473122
349.934546435
349.745632015
349.579080045
349.440461151
349.326200278
349.23142345
349.163090067
349.122762548
349.103930902
349.093346134
349.094158242
349.124333057
349.194681051
349.301224174
349.451200686
349.646743728
349.892278702
350.194094231
350.564629286
351.013131342
351.53748413
352.090738138
352.577898104
352.976468217
353.300210294
353.559822685
353.761965163
353.902619468
353.980232395
354.007020377
354.000611928
353.975678589
353.931671305
353.864018365
353.765356812
353.627653925
353.448398914
353.232635184
352.990561201
352.726284063
352.453147632
352.167637664
351.864239262
351.532760309
351.184237237
350.853525109
350.569755847
350.344083635
350.16646058
350.032270714
349.938247967
349.896951434
349.90099029
349.94447712
350.056814585
350.268555624
350.606370198
351.105776507
351.753820668
352.448148636
352.969266806
353.312967393
353.499559162
353.570267658
353.580067457
353.560187441
353.512834447
353.406037932
353.218754956
352.942698208
352.568917687
352.118402357
351.615298129
351.163155712
350.807377837
350.540409528
350.355854646
350.243388879
350.184266111
350.179265396
350.216674236
350.326563077
350.552663429
350.900188698
351.367519148
351.753524086
351.984569933
352.102325628
352.149336007
352.128131789
352.033875592
351.860487618
351.585481268
351.221829249
350.766609501
350.348690776
350.050297933
349.851389092
349.720249369
349.656058994
349.652473912
349.700869668
349.831892693
350.079235373
350.37849767
350.579146829
350.658663707
350.67587649
350.641843033
350.539587253
350.364505528
350.126885061
349.841169691
349.581277358
349.402104883
349.296852556
349.267275159
349.273252679
349.316185427
349.406366276
349.538163304
349.653076966
349.718223764
349.738676084
349.730653708
349.686735336
349.597608331
349.496189933
349.443978907
349.43672364
349.454514251
349.498955159
349.574733731
349.671250173
349.76621882
349.845484448
349.902808808
349.907548993
350.099593478
350.297406743
350.47739759
350.652814095
350.822637284
350.988798857
351.154256095
351.320454218
351.487239959
351.655427204
351.823911445
351.991425135
352.155496408
352.314264101
352.467666289
352.614088386
352.750275572
352.876383393
352.996865119
353.10910013
353.206899345
353.292454548
353.368955816
353.437222417
353.492613337
353.530736769
353.551979593
353.559535801
353.558657979
353.552780933
353.538314361
353.511353554
353.468526227
353.404899322
353.318712366
353.209797597
353.081605573
352.93641887
352.777621266
352.606984007
352.427813637
352.244444108
352.058033165
351.86553935
351.667309292
351.464094644
351.255909408
351.042004599
350.8215709
350.59359577
350.352376476
350.10248519
349.867885852
349.656234511
349.474692212
349.332568482
349.2228362
349.135696879
349.075407478
349.040536138
349.021857556
349.007067561
349.005219316
349.032915584
349.103461637
349.224207147
349.397679547
349.619700058
349.891133259
350.215742951
350.604029822
351.069820954
351.621881131
352.220050863
352.76028208
353.206272544
353.564504357
353.843411587
354.054476312
354.204610538
354.295291599
354.331815814
354.332002086
354.315238399
354.274922979
354.208698713
354.113412259
353.979229271
353.801214438
353.578753116
353.316598954
353.019475109
352.703036577
352.364387163
351.997979579
351.606133118
351.215434403
350.861075964
350.556871943
350.308059587
350.111913599
349.964833829
349.865204289
349.830333935
349.843052651
349.902160058
350.037413217
350.276348544
350.646975957
351.183459545
351.877673423
352.623245841
353.189026337
353.568436287
353.78335926
353.871507024
353.885794949
353.862189632
353.804603017
353.688602417
353.492358821
353.201050458
352.79990854
352.310075348
351.757185425
351.254679838
350.863898765
350.575095743
350.378712505
350.256350611
350.181490784
350.163112789
350.196146696
350.314090919
350.566980319
350.953438194
351.465579007
351.893594419
352.148161899
352.276343867
352.33059345
352.3132233
352.21547451
352.029209703
351.73538325
351.350200776
350.863899039
350.406969035
350.078347384
349.855074675
349.701762029
349.616364869
349.607732121
349.656578194
349.794881245
350.059977933
350.380883888
350.605239701
350.698772653
350.722424049
350.690047174
350.586991028
350.404622931
350.156129612
349.847040644
349.569374658
349.373285924
349.247421076
349.198965156
349.20166569
349.250251398
349.351286983
349.498775423
349.626910567
349.696768962
349.716035446
349.703038677
349.656915499
349.564812768
349.456554306
349.398760544
349.39207109
349.412263255
349.460734455
349.542711572
349.648381635
349.751957472
349.838963768
349.901964238
349.90795077
350.098896942
350.306460655
350.504400831
350.69603637
350.876922473
351.052221072
351.224548487
351.397986655
351.57347807
351.752148932
351.934647214
352.118056025
352.298252187
352.474678885
352.646864702
352.809526994
352.959768718
353.101309253
353.235106222
353.353823772
353.456910008
353.549910343
353.631320634
353.701155809
353.758426497
353.798946236
353.822044703
353.831449598
353.8305776
353.823136378
353.806075626
353.775344538
353.728579145
353.660457143
353.569153851
353.45508
353.321484192
353.170097611
353.002036749
352.817696522
352.620649142
352.416944933
352.209015085
351.994921804
351.77587403
351.554927109
351.331120115
351.105403302
350.873220541
350.629212642
350.370503174
350.102758134
349.843425944
349.60756061
349.405307181
349.250339068
349.139101632
349.060041231
349.009949066
348.982168099
348.968562661
348.956126602
348.953938032
348.976953006
349.044577722
349.171168907
349.357099221
349.594964358
349.886924273
350.233676686
350.642365356
351.126449208
351.699241517
352.330890958
352.916457009
353.407819859
353.80160897
354.101546208
354.322222412
354.476947688
354.574625246
354.623208143
354.639828038
354.636014431
354.603201731
354.533241528
354.430044189
354.290664627
354.110321379
353.884170297
353.609663704
353.28588047
352.927192055
352.536051821
352.109557256
351.663446622
351.235426667
350.85643403
350.533093219
350.266707087
350.055004366
349.898403251
349.801185656
349.776082491
349.798666809
349.876037442
350.031034901
350.290817771
350.687183688
351.247655485
351.970964555
352.755437165
353.360526763
353.773151033
354.018371023
354.133515666
354.163919338
354.141503079
354.071175382
353.940338547
353.731364874
353.425966769
353.004473657
352.480979567
351.884347009
351.333735649
350.905428008
350.590556055
350.381043491
350.252743078
350.165777188
350.136195425
350.168924074
350.297364094
350.578218484
351.010267555
351.573038296
352.044313544
352.321650074
352.456082761
352.505933056
352.483485397
352.37873047
352.18166452
351.874628816
351.472973823
350.959641986
350.464382813
350.104030858
349.853998872
349.674943563
349.570730655
349.56085328
349.612162119
349.756154114
350.036435429
350.377460354
350.623444474
350.733425672
350.76491822
350.734721747
350.629008203
350.437414471
350.173580161
349.844399163
349.547570377
349.334572184
349.189094446
349.123474333
349.125881496
349.181756378
349.293634838
349.45307838
349.590800013
349.665064602
349.684528928
349.670409626
349.625066651
349.532397059
349.419591867
349.357323341
349.350662793
349.373066488
349.426199082
349.515494263
349.62995664
349.740131685
349.832043775
349.899815049
349.909172637
350.093123726
350.297264543
350.500915698
350.709187043
350.908015288
351.096770948
351.280228821
351.462996873
351.647964372
351.836123251
352.02961285
352.227121932
352.423891306
352.618487648
352.808492676
352.988252636
353.157799056
353.318558196
353.465050856
353.591574835
353.703447204