/*--------------------------------*- C++ -*----------------------------------*\
  =========                 |
  \\      /  F ield         | OpenFOAM: The Open Source CFD Toolbox
   \\    /   O peration     | Website:  https://openfoam.org
    \\  /    A nd           | Version:  8
     \\/     M anipulation  |
\*---------------------------------------------------------------------------*/
FoamFile
{
    version     2.0;
    format      ascii;
    class       volVectorField;
    location    "0.000664";
    object      U;
}
// * * * * * * * * * * * * * * * * * * * * * * * * * * * * * * * * * * * * * //

dimensions      [0 1 -1 0 0 0 0];

internalField   nonuniform List<vector> 
22800
(
(426.993167865 -0.369523095701 0)
(426.931305224 -0.657191339428 0)
(426.889631977 -0.771097561408 0)
(426.806075698 -0.753231902748 0)
(426.759187057 -0.624817718531 0)
(426.706300834 -0.381825641313 0)
(426.652391516 0.00105636695678 0)
(426.578752726 0.534262671833 0)
(426.527361733 1.21389127866 0)
(426.464697947 2.02291353506 0)
(426.417819461 2.948193159 0)
(426.343222876 3.97510688853 0)
(426.275786985 5.10992564499 0)
(426.211506301 6.36398577524 0)
(426.131684833 7.75518636203 0)
(426.049633009 9.29625363072 0)
(425.959996093 10.9804541111 0)
(425.904642491 12.7955760884 0)
(425.851667132 14.7295427501 0)
(425.824134015 16.7719269612 0)
(425.766413554 18.9085438735 0)
(425.752609596 21.131457496 0)
(425.731882654 23.4433133929 0)
(425.745133476 25.8579595544 0)
(425.737156862 28.3877875282 0)
(425.767596235 31.0409134468 0)
(425.780964915 33.822374096 0)
(425.835576825 36.734598143 0)
(425.8743275 39.7625767059 0)
(425.940470364 42.8191175527 0)
(425.977860517 45.8080892705 0)
(426.04589094 48.7354244715 0)
(426.091739228 51.6066368307 0)
(426.161581024 54.4162347081 0)
(426.227472803 57.1464850249 0)
(426.319113284 59.7582800133 0)
(426.41236192 62.193484123 0)
(426.503519017 64.384005482 0)
(426.60719867 66.2513219112 0)
(426.707910928 67.7413389887 0)
(426.810227965 68.831736941 0)
(426.921531044 69.5379055582 0)
(426.982633082 69.9187689515 0)
(427.081057333 70.0306355314 0)
(427.187603218 69.9434460841 0)
(427.269883588 69.6993146843 0)
(427.365879836 69.2776638963 0)
(427.451099318 68.6288112281 0)
(427.529867477 67.7065092647 0)
(427.601620956 66.4717314784 0)
(427.67109891 64.8972270781 0)
(427.724089597 62.9585393536 0)
(427.779498435 60.6330840096 0)
(427.795143453 57.9017155645 0)
(427.785395748 54.7497600556 0)
(427.79525316 51.1672285383 0)
(427.846850147 47.1706868746 0)
(427.860877346 42.7962935475 0)
(427.85525193 38.0560421338 0)
(427.830894342 32.9286158859 0)
(427.828484689 27.3970470904 0)
(427.797270827 21.5023088305 0)
(427.769884202 15.5572900675 0)
(427.66388686 10.0120571572 0)
(427.56304037 4.96312982514 0)
(427.448916515 0.471685216521 0)
(427.340510191 -3.41564861601 0)
(427.234188105 -6.69743683172 0)
(427.129919028 -9.38087077775 0)
(427.018488529 -11.4817541662 0)
(426.90443603 -13.0343653004 0)
(426.775196371 -14.0848246484 0)
(426.692449651 -14.7061701597 0)
(426.503466949 -14.9183682204 0)
(426.364462446 -14.7521339602 0)
(426.315724813 -14.3097473003 0)
(426.279809029 -13.539227804 0)
(426.265527281 -12.279868048 0)
(426.240334053 -10.3731502528 0)
(426.2194861 -7.70637400513 0)
(426.173076593 -4.2153304641 0)
(426.139695416 0.124932341571 0)
(426.122436457 5.31111836593 0)
(426.152108426 11.355622105 0)
(426.155782837 18.0544653502 0)
(426.202951201 24.5600977627 0)
(426.207373274 30.0923295404 0)
(426.254026948 34.5668843901 0)
(426.384227972 37.8899869841 0)
(426.563606954 40.1012988726 0)
(426.691068618 41.3939020974 0)
(426.79368278 41.9837702471 0)
(426.997144044 42.0716452743 0)
(427.125995891 41.7925722723 0)
(427.298130262 41.170261459 0)
(427.490685787 40.0905062286 0)
(427.681875802 38.4041713403 0)
(427.767965391 35.9485324088 0)
(427.848122622 32.553825335 0)
(427.920403382 28.0748192408 0)
(428.029977597 22.388053725 0)
(428.102882994 15.3682582243 0)
(428.171086988 6.85965957688 0)
(428.197596239 -2.60847142999 0)
(428.155741506 -11.253097719 0)
(428.109055832 -18.1396147078 0)
(428.028153912 -23.3538918002 0)
(427.934426013 -27.0419884434 0)
(427.838810238 -29.3962527561 0)
(427.828024297 -30.6607049534 0)
(427.702939693 -31.0752104065 0)
(427.660627585 -30.8901944134 0)
(427.60395925 -30.1074576089 0)
(427.514430271 -28.479805088 0)
(427.47609563 -25.643447601 0)
(427.515307667 -21.1730329443 0)
(427.534384313 -14.7199462222 0)
(427.548333956 -6.38529256497 0)
(427.610862821 2.01632525091 0)
(427.617587252 8.11804926771 0)
(427.636109869 12.0257630526 0)
(427.665539028 14.1440682407 0)
(427.671174547 15.013824274 0)
(427.844672292 15.1589134389 0)
(427.90825896 14.8399245458 0)
(427.93248988 13.8959588547 0)
(427.966346394 11.9094919539 0)
(428.021752319 8.51625488142 0)
(428.093340218 3.46164020914 0)
(428.113087262 -3.46890698011 0)
(428.135945755 -12.0140064353 0)
(428.099216773 -20.253573152 0)
(428.093951664 -26.1419310313 0)
(428.096607595 -29.7540640533 0)
(428.148523352 -31.4822683762 0)
(428.159141613 -31.859096609 0)
(428.202562744 -31.6889421745 0)
(428.299844324 -30.7954943908 0)
(428.329228035 -28.7811785362 0)
(428.330749547 -25.2374516494 0)
(428.270389775 -19.7471981701 0)
(428.264774538 -12.9762710142 0)
(428.266909348 -7.31211563695 0)
(428.279987007 -3.76607636027 0)
(428.276546447 -1.86638950461 0)
(428.277249767 -1.22298451583 0)
(428.352081468 -1.19664964156 0)
(428.290990145 -1.77645131758 0)
(428.295225341 -3.53651845002 0)
(428.353680514 -6.98755030173 0)
(428.39688632 -12.4579998899 0)
(428.49311997 -19.032709206 0)
(428.507303281 -24.102973123 0)
(428.494473519 -26.8494930681 0)
(428.543090208 -27.8094085039 0)
(428.593813039 -27.8833018765 0)
(428.73466252 -27.42451901 0)
(428.813407359 -26.073515871 0)
(428.836004602 -23.5666809704 0)
(428.763988876 -19.7550995163 0)
(428.747518759 -15.3828042477 0)
(428.738235074 -12.1082194662 0)
(428.716312815 -10.1103073048 0)
(428.690658796 -9.14101965412 0)
(428.706262485 -8.87051169275 0)
(428.694681108 -9.05415029071 0)
(428.720712951 -10.0271268376 0)
(428.783683473 -12.2052875434 0)
(428.916032528 -14.9476531206 0)
(429.056547964 -16.6208040615 0)
(429.172536749 -17.2006197509 0)
(429.251662774 -17.2259920843 0)
(429.332908588 -16.9302812333 0)
(429.424505987 -16.1131818324 0)
(429.517581236 -14.6739585839 0)
(429.586802084 -12.6645092878 0)
(429.643189256 -10.6194701736 0)
(429.696756007 -9.20660390733 0)
(429.743465683 -8.37412394434 0)
(429.792918698 -7.95746997636 0)
(429.804534903 -7.77189050343 0)
(429.871216304 -7.72861642434 0)
(429.910355028 -7.66124243386 0)
(429.934267464 -7.49343073328 0)
(429.957373362 -7.09368166945 0)
(429.957460923 -6.33176564884 0)
(429.947797562 -5.0916228842 0)
(429.929748548 -3.23703716656 0)
(429.91512958 -1.10534097523 0)
(429.830295715 0.191126763208 0)
(426.978803523 -0.209471520046 0)
(426.888307487 -0.441235598163 0)
(426.83049278 -0.561251331514 0)
(426.736339733 -0.550552968462 0)
(426.647631801 -0.435127570891 0)
(426.548160522 -0.204708688065 0)
(426.445982469 0.156917580296 0)
(426.345186952 0.656768607518 0)
(426.240968863 1.29884225917 0)
(426.132439259 2.07140804041 0)
(426.036265059 2.95828773047 0)
(425.933766512 3.95385692357 0)
(425.825186687 5.06706716892 0)
(425.740436723 6.31310374461 0)
(425.634019111 7.69871967473 0)
(425.519345223 9.23106648952 0)
(425.395869355 10.9012834015 0)
(425.319310816 12.6943648758 0)
(425.255108901 14.600548055 0)
(425.228823741 16.6157482035 0)
(425.181112503 18.7311980253 0)
(425.161810397 20.9416944884 0)
(425.135100842 23.2447568739 0)
(425.151558342 25.6462229158 0)
(425.144240623 28.1558730769 0)
(425.166530946 30.7803713892 0)
(425.174231598 33.5222531336 0)
(425.220615479 36.3806517599 0)
(425.258372305 39.3452120248 0)
(425.332484476 42.3424514748 0)
(425.381534969 45.2836751369 0)
(425.460366174 48.1704753691 0)
(425.513551145 51.0082202491 0)
(425.592262129 53.787270383 0)
(425.665347927 56.4841928998 0)
(425.767181941 59.056498951 0)
(425.880104174 61.4479589892 0)
(425.988165327 63.5938653624 0)
(426.102622918 65.4246019447 0)
(426.216066393 66.8884223866 0)
(426.338879555 67.9587790784 0)
(426.461913578 68.650429684 0)
(426.52866888 69.0236278748 0)
(426.615518513 69.1533843418 0)
(426.723104717 69.0704173138 0)
(426.829077331 68.8284017545 0)
(426.94766991 68.4014439071 0)
(427.069882235 67.7465830157 0)
(427.191571836 66.8239655428 0)
(427.300760221 65.6002453933 0)
(427.405662526 64.0471361131 0)
(427.480422308 62.1342346451 0)
(427.549718303 59.8378403321 0)
(427.589619405 57.1364818532 0)
(427.584203267 54.0187554886 0)
(427.604760893 50.4790656465 0)
(427.675867892 46.5284224143 0)
(427.699796078 42.1961829087 0)
(427.676900807 37.5087606343 0)
(427.600274529 32.4820394189 0)
(427.532400468 27.114747429 0)
(427.442367875 21.4194470192 0)
(427.304109376 15.6528196183 0)
(427.163029185 10.253838253 0)
(426.981663777 5.32515342729 0)
(426.855491391 0.938039027797 0)
(426.729976151 -2.89104856806 0)
(426.605606801 -6.14543707281 0)
(426.474207341 -8.83334825983 0)
(426.332059768 -10.9673017932 0)
(426.193759328 -12.5628667414 0)
(426.061232894 -13.6482133225 0)
(425.971796518 -14.2817665788 0)
(425.825982676 -14.5016039666 0)
(425.68228798 -14.3702421622 0)
(425.567823644 -13.9634703176 0)
(425.467486734 -13.1891893635 0)
(425.389082923 -11.936741065 0)
(425.311607522 -10.0792468802 0)
(425.239258419 -7.48925665581 0)
(425.134976804 -4.08530072934 0)
(425.060527796 0.168603429905 0)
(425.021684296 5.28004076727 0)
(425.043658888 11.2644017821 0)
(425.076885039 17.9290325373 0)
(425.181647996 24.4367152612 0)
(425.278913951 29.9584771148 0)
(425.444020595 34.3762579239 0)
(425.636846553 37.668608938 0)
(425.856299222 39.8799165449 0)
(426.003949308 41.1786300485 0)
(426.123349127 41.7836163206 0)
(426.361659225 41.8823446261 0)
(426.516946131 41.5896629335 0)
(426.730811687 40.9383218598 0)
(426.970351105 39.8026920933 0)
(427.226862743 38.0513264464 0)
(427.367081419 35.5493736492 0)
(427.443885278 32.1739867795 0)
(427.499472422 27.7768060708 0)
(427.598370402 22.2063554832 0)
(427.708971591 15.3186810406 0)
(427.737332796 6.9733970717 0)
(427.659520726 -2.30521312093 0)
(427.524235294 -10.8283319456 0)
(427.387078682 -17.6711958494 0)
(427.220123986 -22.8925402116 0)
(427.078515627 -26.5904762185 0)
(426.971478002 -28.928879234 0)
(426.989998591 -30.1492504545 0)
(426.898943545 -30.5613978143 0)
(426.845065818 -30.3618048699 0)
(426.778624495 -29.5867150743 0)
(426.700151259 -27.9738633658 0)
(426.65819158 -25.1496600989 0)
(426.671960315 -20.7068110941 0)
(426.693559221 -14.3242758937 0)
(426.719435823 -6.14940568418 0)
(426.788629065 2.09562458906 0)
(426.813999013 8.13979767205 0)
(426.851359998 12.0731312072 0)
(426.931234801 14.2901268096 0)
(426.987522461 15.2854783385 0)
(427.258659605 15.4676073428 0)
(427.392985288 15.0978250151 0)
(427.456726937 14.0779253109 0)
(427.509997288 12.02650421 0)
(427.590342292 8.60482121732 0)
(427.67494579 3.56181261972 0)
(427.723658724 -3.33701470175 0)
(427.742948704 -11.8233560753 0)
(427.74272907 -19.989547728 0)
(427.747796264 -25.8102883543 0)
(427.783514777 -29.3474633501 0)
(427.874673353 -30.9976067985 0)
(427.921548554 -31.4049357109 0)
(427.96660736 -31.2032994229 0)
(428.043641391 -30.2968827984 0)
(428.052607763 -28.3086334004 0)
(428.072059948 -24.8147369735 0)
(428.027280476 -19.3894923847 0)
(428.043881538 -12.6933875714 0)
(428.120643777 -7.08402184251 0)
(428.180124881 -3.57235673298 0)
(428.19076833 -1.7011608601 0)
(428.142657119 -0.972269616131 0)
(428.184800809 -0.935219685465 0)
(428.1552422 -1.54945957247 0)
(428.239763994 -3.38802816826 0)
(428.357111582 -6.93083219975 0)
(428.445101739 -12.477299963 0)
(428.567823112 -19.030761332 0)
(428.590102999 -23.962790419 0)
(428.606365386 -26.5959809868 0)
(428.691458919 -27.4936434169 0)
(428.758948449 -27.5309518135 0)
(428.913821708 -27.0320997801 0)
(428.979114518 -25.6797710959 0)
(428.978797162 -23.2077761049 0)
(428.887331966 -19.4481194315 0)
(428.788663702 -15.1274812042 0)
(428.799908129 -11.9033122271 0)
(428.77706484 -9.96477827175 0)
(428.743810529 -9.02782750057 0)
(428.763080115 -8.7541511007 0)
(428.759746529 -8.97883185398 0)
(428.792124026 -9.99469085829 0)
(428.913981796 -12.2164692766 0)
(429.057651653 -15.0161726325 0)
(429.170079953 -16.7586041261 0)
(429.263265028 -17.3825508903 0)
(429.342489355 -17.4162039396 0)
(429.43904206 -17.1052593693 0)
(429.552593706 -16.2533186096 0)
(429.662484268 -14.7651947039 0)
(429.747172092 -12.6984757722 0)
(429.836205592 -10.5993793811 0)
(429.896672079 -9.17067364395 0)
(429.895251483 -8.34361560882 0)
(429.908859458 -7.94042074675 0)
(429.906819836 -7.79075418572 0)
(429.969832975 -7.75740409693 0)
(430.013512637 -7.68197739948 0)
(430.034925059 -7.50484043766 0)
(430.062056355 -7.10524137659 0)
(430.067473373 -6.34681939922 0)
(430.053958709 -5.09953144398 0)
(429.991042297 -3.23271252248 0)
(429.974504019 -1.09067129808 0)
(429.829558688 0.201670918646 0)
(426.956845597 -0.287464457908 0)
(426.771057963 -0.550806496315 0)
(426.64734719 -0.707862068118 0)
(426.484728531 -0.739659278692 0)
(426.331738548 -0.652691975918 0)
(426.177467778 -0.460584528991 0)
(426.026846836 -0.152927921764 0)
(425.8894089 0.281383513335 0)
(425.749372083 0.843210396433 0)
(425.623335316 1.5378313447 0)
(425.507682223 2.36707259583 0)
(425.386536488 3.33823961236 0)
(425.243424312 4.45526283431 0)
(425.135945187 5.71209843924 0)
(425.005970463 7.09262156141 0)
(424.86179677 8.59762652829 0)
(424.697843904 10.2263309267 0)
(424.597373483 11.9738278592 0)
(424.514816126 13.8347732023 0)
(424.474921704 15.8142842789 0)
(424.407700637 17.9083165042 0)
(424.358482499 20.1129928111 0)
(424.303724362 22.4238050257 0)
(424.292293354 24.841159444 0)
(424.270805651 27.3633599491 0)
(424.259249036 29.9889655528 0)
(424.248233597 32.7161632845 0)
(424.2702962 35.5442612939 0)
(424.294139497 38.4743851904 0)
(424.358600563 41.4557130682 0)
(424.402522106 44.3978641996 0)
(424.482763348 47.287627097 0)
(424.53229579 50.1265538529 0)
(424.608287419 52.9008972449 0)
(424.671964266 55.5842620959 0)
(424.770908211 58.1327804819 0)
(424.885472235 60.4922944602 0)
(425.000894121 62.6017744551 0)
(425.11833895 64.4013627057 0)
(425.247648802 65.8473133753 0)
(425.395407906 66.9129330661 0)
(425.541978628 67.6112704022 0)
(425.62441094 68.0020665244 0)
(425.738152256 68.1401768691 0)
(425.866041705 68.0474839651 0)
(425.993523042 67.7878502341 0)
(426.135783437 67.3405869033 0)
(426.285285495 66.6645161134 0)
(426.437774244 65.7208498177 0)
(426.584113196 64.4788136276 0)
(426.728382272 62.9145090363 0)
(426.838408987 61.0018978818 0)
(426.954183518 58.7165203816 0)
(427.035149089 56.0360713568 0)
(427.043440484 52.9543380082 0)
(427.068998464 49.4656157881 0)
(427.151187197 45.5694840506 0)
(427.178912022 41.2927909521 0)
(427.139668976 36.6756821428 0)
(427.053580414 31.7380830209 0)
(426.97064307 26.489050486 0)
(426.918454473 20.9416857298 0)
(426.790125819 15.3260564763 0)
(426.674822644 10.0461225616 0)
(426.451270326 5.21369765526 0)
(426.292590235 0.884094592914 0)
(426.105604847 -2.91662354281 0)
(425.927791923 -6.17317820531 0)
(425.753489049 -8.886939344 0)
(425.569965677 -11.0691599995 0)
(425.40393333 -12.725659843 0)
(425.271569302 -13.8609060124 0)
(425.211605368 -14.5247293451 0)
(425.083901903 -14.7581468774 0)
(424.96342726 -14.6062516681 0)
(424.832724703 -14.1560983327 0)
(424.669256532 -13.3390679056 0)
(424.507681104 -12.0610504059 0)
(424.352035673 -10.2162283095 0)
(424.219487235 -7.68792946406 0)
(424.104004024 -4.37646737866 0)
(424.029176094 -0.212529999137 0)
(423.990424212 4.82789212515 0)
(424.016413817 10.7547255118 0)
(424.071438421 17.3856065069 0)
(424.205284723 23.8854931462 0)
(424.363363177 29.3893534589 0)
(424.5723422 33.7945590436 0)
(424.777479601 37.0931956106 0)
(425.000328844 39.323256997 0)
(425.164093726 40.647383244 0)
(425.320107475 41.2754823943 0)
(425.59593572 41.3634794861 0)
(425.775516303 41.0412411159 0)
(426.023631185 40.348667338 0)
(426.299178379 39.1715804938 0)
(426.602526405 37.3933085573 0)
(426.822551427 34.8855376466 0)
(426.941676158 31.5383113946 0)
(427.030018876 27.2037585127 0)
(427.118415419 21.7032143267 0)
(427.262534234 14.8812262991 0)
(427.274633933 6.63105885605 0)
(427.182503203 -2.51117417746 0)
(427.008247807 -10.9113916028 0)
(426.820258557 -17.6692512183 0)
(426.591181502 -22.8364494741 0)
(426.413670879 -26.514332051 0)
(426.292531516 -28.8530360751 0)
(426.3250336 -30.0800398133 0)
(426.235047575 -30.4662162129 0)
(426.18088721 -30.2438435536 0)
(426.123149572 -29.4500339304 0)
(426.04523303 -27.8106322561 0)
(426.008046312 -24.9592732313 0)
(426.026032393 -20.5252926613 0)
(425.982557772 -14.2263575951 0)
(425.995644592 -6.17117796125 0)
(426.069240141 1.98473166289 0)
(426.152217267 7.99405334829 0)
(426.247885324 11.9513022139 0)
(426.383249732 14.2221367611 0)
(426.487068981 15.2870286062 0)
(426.805247739 15.5182520372 0)
(426.985440767 15.1337251294 0)
(427.079898938 14.0976491618 0)
(427.163466817 12.0512072006 0)
(427.268563601 8.65370200899 0)
(427.385340002 3.62363168494 0)
(427.444156329 -3.26063684468 0)
(427.491575897 -11.6750936479 0)
(427.516858551 -19.7808137639 0)
(427.542296582 -25.6041691044 0)
(427.617675352 -29.1718431448 0)
(427.751623296 -30.8373105226 0)
(427.836416135 -31.252651248 0)
(427.884111117 -31.0321525221 0)
(427.951120891 -30.0837654871 0)
(427.946603318 -28.0615889416 0)
(427.97766437 -24.5533987058 0)
(427.934539623 -19.1393362578 0)
(427.964195694 -12.4581277113 0)
(428.072337275 -6.84776028345 0)
(428.144948054 -3.33723398302 0)
(428.143861179 -1.47300597243 0)
(428.10998264 -0.761139269753 0)
(428.154515078 -0.738352963079 0)
(428.141667532 -1.35304703259 0)
(428.251230975 -3.17767325693 0)
(428.371613282 -6.70247651529 0)
(428.526735954 -12.2278801604 0)
(428.685453901 -18.7715859361 0)
(428.766261943 -23.7020434545 0)
(428.846246441 -26.2889329087 0)
(428.966180601 -27.1342503651 0)
(429.020991116 -27.1257242292 0)
(429.177445708 -26.5806953769 0)
(429.251336155 -25.211727495 0)
(429.266104068 -22.7505394301 0)
(429.178831549 -19.0196439384 0)
(429.023906697 -14.7464025253 0)
(429.010612932 -11.5905800678 0)
(428.971669978 -9.72120343963 0)
(428.922169288 -8.8286478524 0)
(428.947346324 -8.57514672884 0)
(428.946637814 -8.80943781313 0)
(428.969442299 -9.83891679398 0)
(429.121421077 -12.0625715991 0)
(429.265519768 -14.9003636319 0)
(429.373799975 -16.710489762 0)
(429.468513417 -17.3418110252 0)
(429.567558387 -17.3307063017 0)
(429.689802262 -16.9707098126 0)
(429.833240754 -16.0607376408 0)
(429.951661077 -14.5028344244 0)
(430.026461099 -12.3868635133 0)
(430.093581589 -10.3101338884 0)
(430.110466648 -8.96162090729 0)
(430.084727765 -8.19434907161 0)
(430.084189061 -7.81467596111 0)
(430.072935176 -7.66785120517 0)
(430.132549112 -7.63100093538 0)
(430.188195286 -7.55100353747 0)
(430.213721089 -7.37332555351 0)
(430.240105756 -6.98297755959 0)
(430.238524506 -6.23646595502 0)
(430.23949118 -5.01037498392 0)
(430.113673678 -3.177135956 0)
(430.121247445 -1.06532961733 0)
(429.892025189 0.222263746289 0)
(426.927056073 -0.269280699404 0)
(426.627506665 -0.5336081758 0)
(426.413115853 -0.723447900166 0)
(426.165002581 -0.796860228772 0)
(425.924196942 -0.738310691672 0)
(425.699795559 -0.56764766478 0)
(425.485009334 -0.298429658988 0)
(425.279173699 0.0734095822999 0)
(425.064068761 0.55959809911 0)
(424.873040684 1.1859471648 0)
(424.695660727 1.95599517031 0)
(424.510178664 2.87993487343 0)
(424.310256675 3.9636891596 0)
(424.171148204 5.19783479503 0)
(424.013804966 6.5599669626 0)
(423.836355072 8.05584875375 0)
(423.628718887 9.67742387083 0)
(423.503457671 11.409827377 0)
(423.39085091 13.2482538256 0)
(423.315218922 15.2122410241 0)
(423.200218084 17.3034985393 0)
(423.114134675 19.5195999729 0)
(423.020496283 21.8503419957 0)
(422.976093676 24.2857351627 0)
(422.930853309 26.8081500898 0)
(422.892732115 29.4084412966 0)
(422.856863114 32.0846231646 0)
(422.854498476 34.8386857205 0)
(422.855268764 37.6713203495 0)
(422.910359125 40.5416088049 0)
(422.951266366 43.3800558587 0)
(423.046770446 46.1772369723 0)
(423.112595738 48.9314081739 0)
(423.221065486 51.6290452574 0)
(423.319788588 54.2483021458 0)
(423.466368886 56.7387874536 0)
(423.617683819 59.0481063652 0)
(423.784050946 61.1183097202 0)
(423.938711489 62.8965332384 0)
(424.112121464 64.3437102688 0)
(424.288100418 65.4416449536 0)
(424.483573954 66.1923797397 0)
(424.604884377 66.6485676038 0)
(424.751325204 66.8466887283 0)
(424.923013238 66.787156871 0)
(425.076778293 66.5413503773 0)
(425.23543074 66.0929932704 0)
(425.410010959 65.408634044 0)
(425.591374498 64.4556466768 0)
(425.784226376 63.2077571401 0)
(425.980170035 61.6401543878 0)
(426.163530436 59.729037559 0)
(426.355840906 57.4497626348 0)
(426.550194445 54.7811606385 0)
(426.637484362 51.7268958672 0)
(426.708436351 48.2926774558 0)
(426.82120519 44.470252266 0)
(426.892480453 40.2718763203 0)
(426.855005878 35.7383458353 0)
(426.814191083 30.9020386413 0)
(426.740699582 25.7677653703 0)
(426.699060868 20.3595761429 0)
(426.535712969 14.9055202325 0)
(426.403734079 9.76375512335 0)
(426.123993434 5.03482478657 0)
(425.86219943 0.76936739951 0)
(425.555688461 -2.99646324022 0)
(425.280765316 -6.23525638401 0)
(425.00069545 -8.92547791807 0)
(424.746602795 -11.0709430138 0)
(424.505550919 -12.7101013507 0)
(424.31767123 -13.8686262346 0)
(424.24034583 -14.6083166211 0)
(424.12846634 -14.9441343758 0)
(423.994742207 -14.8601975598 0)
(423.877110177 -14.441405063 0)
(423.693549344 -13.6178454835 0)
(423.460485608 -12.291440313 0)
(423.197821332 -10.3896018849 0)
(422.985215441 -7.85004275473 0)
(422.844125816 -4.59421183356 0)
(422.734529143 -0.530995139183 0)
(422.71815057 4.38827287745 0)
(422.747758407 10.1887699788 0)
(422.839023918 16.7124049514 0)
(422.996001505 23.1512768698 0)
(423.200299474 28.6141140849 0)
(423.448763773 32.9999374903 0)
(423.698108463 36.2933497209 0)
(423.940900371 38.5453717283 0)
(424.138827622 39.9148821419 0)
(424.340806672 40.5971565861 0)
(424.663862267 40.6981259 0)
(424.882103604 40.3691411472 0)
(425.169589408 39.6843344944 0)
(425.476718236 38.5096060176 0)
(425.83441961 36.7270839383 0)
(426.203195179 34.2139776942 0)
(426.457622546 30.8869649225 0)
(426.6514487 26.6421130939 0)
(426.779962718 21.3153176884 0)
(426.996238974 14.7321033594 0)
(426.997282081 6.71326162645 0)
(426.838947139 -2.26798434427 0)
(426.574296082 -10.5940026982 0)
(426.292148901 -17.3108474305 0)
(425.97939492 -22.4759857544 0)
(425.776593148 -26.1868398664 0)
(425.662643749 -28.5978461529 0)
(425.711630308 -29.9463879585 0)
(425.633559625 -30.4473352358 0)
(425.579363904 -30.2137527663 0)
(425.536162022 -29.3557899091 0)
(425.445224927 -27.6468040822 0)
(425.385209943 -24.7484645115 0)
(425.3582214 -20.3350297309 0)
(425.279276216 -14.1301879211 0)
(425.323876834 -6.21271721026 0)
(425.4505437 1.82761351408 0)
(425.620494721 7.80383156033 0)
(425.779824933 11.7996792199 0)
(425.919810271 14.1468576232 0)
(426.030692611 15.2721971114 0)
(426.373109912 15.5040713624 0)
(426.566042036 15.0530480357 0)
(426.693747185 13.9183588884 0)
(426.828048495 11.8303072353 0)
(426.99556452 8.50314579698 0)
(427.166506192 3.65648670531 0)
(427.231352849 -2.98271643457 0)
(427.244728039 -11.2029555108 0)
(427.266385661 -19.2518988147 0)
(427.294295872 -25.0918621465 0)
(427.406214172 -28.7549070136 0)
(427.584722422 -30.5925007231 0)
(427.721939402 -31.1381548111 0)
(427.76954861 -30.9629481905 0)
(427.836629836 -29.9922429129 0)
(427.820307053 -27.8848504964 0)
(427.865191505 -24.2702647678 0)
(427.840520959 -18.7710075124 0)
(427.884413521 -12.0608994758 0)
(428.027776676 -6.46705188637 0)
(428.100640432 -2.98074404889 0)
(428.095236145 -1.14674441847 0)
(428.081135305 -0.456158335145 0)
(428.14935125 -0.446296621109 0)
(428.159985179 -1.07697504034 0)
(428.289500802 -2.90325651107 0)
(428.417755982 -6.39542116864 0)
(428.620242264 -11.879309757 0)
(428.823925506 -18.3910889346 0)
(428.958395917 -23.3216903754 0)
(429.089952346 -25.9262071033 0)
(429.254534939 -26.7915135916 0)
(429.281644231 -26.7857435952 0)
(429.434726534 -26.2278067783 0)
(429.511575244 -24.8364480977 0)
(429.549735977 -22.3461791566 0)
(429.485079888 -18.5845086492 0)
(429.325846784 -14.3059017978 0)
(429.285301172 -11.1691726594 0)
(429.232992174 -9.33030783878 0)
(429.140166926 -8.48739680829 0)
(429.135713291 -8.26503286472 0)
(429.138305815 -8.49631953585 0)
(429.16526609 -9.54132203882 0)
(429.342034521 -11.8308233544 0)
(429.54282685 -14.7408775892 0)
(429.676001688 -16.6109974306 0)
(429.802527145 -17.2750305493 0)
(429.968623697 -17.2389536471 0)
(430.139515765 -16.8327853488 0)
(430.323600609 -15.8829670563 0)
(430.462190323 -14.3319053572 0)
(430.529402623 -12.2373199178 0)
(430.577242987 -10.1915477927 0)
(430.515936532 -8.87163257551 0)
(430.462258575 -8.12856596018 0)
(430.431464067 -7.76499272908 0)
(430.413842371 -7.62376525293 0)
(430.475378123 -7.58045472047 0)
(430.540140297 -7.49168044794 0)
(430.570790514 -7.31197644899 0)
(430.588102975 -6.93240716302 0)
(430.58215352 -6.19733204038 0)
(430.585571785 -4.97273573943 0)
(430.388305325 -3.12787292491 0)
(430.410921347 -1.01590677477 0)
(430.083800979 0.243393775043 0)
(426.87902964 -0.236376482748 0)
(426.503671008 -0.468731579374 0)
(426.21696455 -0.676061506993 0)
(425.91113452 -0.798432357365 0)
(425.603628042 -0.809708479512 0)
(425.306381468 -0.694830095455 0)
(425.019397001 -0.470929150593 0)
(424.738086933 -0.134129487563 0)
(424.447875403 0.324977014066 0)
(424.182644059 0.927660721682 0)
(423.917412498 1.66260522393 0)
(423.637688409 2.54291199767 0)
(423.357098988 3.5772360568 0)
(423.168680534 4.75667554756 0)
(422.962656672 6.0557054351 0)
(422.746084793 7.47238497566 0)
(422.526378087 9.00501198831 0)
(422.414385943 10.6584231865 0)
(422.280050681 12.4359386277 0)
(422.165995569 14.3511400603 0)
(422.002011678 16.396861235 0)
(421.914405873 18.5762697042 0)
(421.781909098 20.8816899341 0)
(421.714809428 23.2987756984 0)
(421.627492325 25.7930027702 0)
(421.580463482 28.3509595819 0)
(421.492094285 30.9703419864 0)
(421.466387626 33.658079914 0)
(421.415132014 36.4071941713 0)
(421.440988902 39.1809238834 0)
(421.435587037 41.937481482 0)
(421.515095575 44.6704515767 0)
(421.569580221 47.3769883811 0)
(421.697752162 50.0332826647 0)
(421.803016882 52.608962503 0)
(421.966113162 55.0517898126 0)
(422.114714039 57.3189518542 0)
(422.313700344 59.3544858071 0)
(422.50368139 61.1175564902 0)
(422.723170537 62.5721525168 0)
(422.933024151 63.7023790835 0)
(423.194500319 64.4936478896 0)
(423.394950238 65.0020164734 0)
(423.622006691 65.2437565676 0)
(423.875590959 65.1846089458 0)
(424.088058733 64.9139131973 0)
(424.29711094 64.4420140614 0)
(424.514507585 63.7422950409 0)
(424.742158274 62.7834975359 0)
(424.989505122 61.5374669396 0)
(425.250785856 59.9763656571 0)
(425.505355648 58.0778640495 0)
(425.770632376 55.8222975378 0)
(426.067642717 53.1860287396 0)
(426.262341007 50.1590271038 0)
(426.414167283 46.7674674927 0)
(426.57042639 43.0140413494 0)
(426.693243076 38.9046701868 0)
(426.703515439 34.4679299945 0)
(426.71312545 29.7423063783 0)
(426.695176098 24.726710344 0)
(426.691816013 19.4567758581 0)
(426.493458755 14.1761847741 0)
(426.318828085 9.19856529563 0)
(425.97017325 4.59592757594 0)
(425.582648055 0.421933490789 0)
(425.15873882 -3.25925305768 0)
(424.783537568 -6.41498172718 0)
(424.398337578 -9.04917602616 0)
(424.054687173 -11.1969322651 0)
(423.732734831 -12.8565574943 0)
(423.426476442 -14.0582965118 0)
(423.215250156 -14.8535021291 0)
(423.027588904 -15.2186243192 0)
(422.834307158 -15.1128660897 0)
(422.688122923 -14.6614750595 0)
(422.484058499 -13.8312626844 0)
(422.211008856 -12.5067581541 0)
(421.847165232 -10.6039758383 0)
(421.510467833 -8.07261007579 0)
(421.322004678 -4.86615008201 0)
(421.165946708 -0.903250968967 0)
(421.143208219 3.87975638871 0)
(421.179502699 9.52762288679 0)
(421.31520001 15.9080645832 0)
(421.498312715 22.2443182874 0)
(421.745477273 27.6315984666 0)
(422.038624716 31.9733062377 0)
(422.351163375 35.2550885456 0)
(422.652002159 37.5446045876 0)
(422.937657175 38.9970012408 0)
(423.1890193 39.8044824427 0)
(423.568027283 40.0106483119 0)
(423.865261097 39.718167669 0)
(424.222000973 39.0376119764 0)
(424.598681712 37.8476000168 0)
(425.036740625 36.0537581353 0)
(425.522009868 33.5465080792 0)
(425.973726763 30.2175038019 0)
(426.33445899 25.9862049328 0)
(426.560582601 20.7466697835 0)
(426.80582233 14.3278883383 0)
(426.827124318 6.52543157252 0)
(426.660101901 -2.27720471017 0)
(426.348849942 -10.5324838347 0)
(426.001537146 -17.224593286 0)
(425.63358726 -22.3880171045 0)
(425.376828018 -26.1206560152 0)
(425.222112151 -28.5547059617 0)
(425.246469987 -29.892542814 0)
(425.122462035 -30.3704092857 0)
(425.014580056 -30.1151763407 0)
(424.941503213 -29.2341731711 0)
(424.806856711 -27.5020168094 0)
(424.700047656 -24.5727559614 0)
(424.604067834 -20.1594877472 0)
(424.49957249 -14.0318827957 0)
(424.54442028 -6.24892102337 0)
(424.742861512 1.68393093537 0)
(424.990845814 7.62488818513 0)
(425.237384119 11.6502368594 0)
(425.443721569 14.0621443467 0)
(425.560260669 15.2372948241 0)
(425.912226717 15.4956975542 0)
(426.140737573 15.0559690536 0)
(426.344567906 13.9558459428 0)
(426.554142641 11.9245536041 0)
(426.764557348 8.68532474855 0)
(426.970536045 3.95941517704 0)
(427.084165153 -2.51654021374 0)
(427.113100628 -10.6002186543 0)
(427.125511569 -18.6405290679 0)
(427.116779214 -24.5362352701 0)
(427.162099852 -28.3022454384 0)
(427.306488664 -30.2745233908 0)
(427.511927188 -30.9710160847 0)
(427.604331908 -30.8880956799 0)
(427.729716601 -29.9578600343 0)
(427.722808015 -27.7857963029 0)
(427.733473741 -24.0261050672 0)
(427.704482815 -18.3824412326 0)
(427.725914156 -11.6030643306 0)
(427.920602798 -6.0171267696 0)
(427.990039323 -2.5445480188 0)
(427.990325782 -0.7175449528 0)